+ 0.1 0 1 cbr 210 ------- 1 0.0 2.0 0 0
- 0.1 0 1 cbr 210 ------- 1 0.0 2.0 0 0
+ 0.10375 0 1 cbr 210 ------- 1 0.0 2.0 1 1
- 0.10375 0 1 cbr 210 ------- 1 0.0 2.0 1 1
+ 0.1075 0 1 cbr 210 ------- 1 0.0 2.0 2 2
- 0.1075 0 1 cbr 210 ------- 1 0.0 2.0 2 2
r 0.11084 0 1 cbr 210 ------- 1 0.0 2.0 0 0
+ 0.11084 1 2 cbr 210 ------- 1 0.0 2.0 0 0
- 0.11084 1 2 cbr 210 ------- 1 0.0 2.0 0 0
+ 0.11125 0 1 cbr 210 ------- 1 0.0 2.0 3 3
- 0.11125 0 1 cbr 210 ------- 1 0.0 2.0 3 3
r 0.11459 0 1 cbr 210 ------- 1 0.0 2.0 1 1
+ 0.11459 1 2 cbr 210 ------- 1 0.0 2.0 1 1
- 0.11459 1 2 cbr 210 ------- 1 0.0 2.0 1 1
+ 0.115 0 1 cbr 210 ------- 1 0.0 2.0 4 4
- 0.115 0 1 cbr 210 ------- 1 0.0 2.0 4 4
r 0.11834 0 1 cbr 210 ------- 1 0.0 2.0 2 2
+ 0.11834 1 2 cbr 210 ------- 1 0.0 2.0 2 2
- 0.11834 1 2 cbr 210 ------- 1 0.0 2.0 2 2
+ 0.11875 0 1 cbr 210 ------- 1 0.0 2.0 5 5
- 0.11875 0 1 cbr 210 ------- 1 0.0 2.0 5 5
r 0.12168 1 2 cbr 210 ------- 1 0.0 2.0 0 0
r 0.12209 0 1 cbr 210 ------- 1 0.0 2.0 3 3
+ 0.12209 1 2 cbr 210 ------- 1 0.0 2.0 3 3
- 0.12209 1 2 cbr 210 ------- 1 0.0 2.0 3 3
+ 0.1225 0 1 cbr 210 ------- 1 0.0 2.0 6 6
- 0.1225 0 1 cbr 210 ------- 1 0.0 2.0 6 6
r 0.12543 1 2 cbr 210 ------- 1 0.0 2.0 1 1
r 0.12584 0 1 cbr 210 ------- 1 0.0 2.0 4 4
+ 0.12584 1 2 cbr 210 ------- 1 0.0 2.0 4 4
- 0.12584 1 2 cbr 210 ------- 1 0.0 2.0 4 4
+ 0.12625 0 1 cbr 210 ------- 1 0.0 2.0 7 7
- 0.12625 0 1 cbr 210 ------- 1 0.0 2.0 7 7
r 0.12918 1 2 cbr 210 ------- 1 0.0 2.0 2 2
r 0.12959 0 1 cbr 210 ------- 1 0.0 2.0 5 5
+ 0.12959 1 2 cbr 210 ------- 1 0.0 2.0 5 5
- 0.12959 1 2 cbr 210 ------- 1 0.0 2.0 5 5
+ 0.13 0 1 cbr 210 ------- 1 0.0 2.0 8 8
- 0.13 0 1 cbr 210 ------- 1 0.0 2.0 8 8
r 0.13293 1 2 cbr 210 ------- 1 0.0 2.0 3 3
r 0.13334 0 1 cbr 210 ------- 1 0.0 2.0 6 6
+ 0.13334 1 2 cbr 210 ------- 1 0.0 2.0 6 6
- 0.13334 1 2 cbr 210 ------- 1 0.0 2.0 6 6
+ 0.13375 0 1 cbr 210 ------- 1 0.0 2.0 9 9
- 0.13375 0 1 cbr 210 ------- 1 0.0 2.0 9 9
r 0.13668 1 2 cbr 210 ------- 1 0.0 2.0 4 4
r 0.13709 0 1 cbr 210 ------- 1 0.0 2.0 7 7
+ 0.13709 1 2 cbr 210 ------- 1 0.0 2.0 7 7
- 0.13709 1 2 cbr 210 ------- 1 0.0 2.0 7 7
+ 0.1375 0 1 cbr 210 ------- 1 0.0 2.0 10 10
- 0.1375 0 1 cbr 210 ------- 1 0.0 2.0 10 10
r 0.14043 1 2 cbr 210 ------- 1 0.0 2.0 5 5
r 0.14084 0 1 cbr 210 ------- 1 0.0 2.0 8 8
+ 0.14084 1 2 cbr 210 ------- 1 0.0 2.0 8 8
- 0.14084 1 2 cbr 210 ------- 1 0.0 2.0 8 8
+ 0.14125 0 1 cbr 210 ------- 1 0.0 2.0 11 11
- 0.14125 0 1 cbr 210 ------- 1 0.0 2.0 11 11
r 0.14418 1 2 cbr 210 ------- 1 0.0 2.0 6 6
r 0.14459 0 1 cbr 210 ------- 1 0.0 2.0 9 9
+ 0.14459 1 2 cbr 210 ------- 1 0.0 2.0 9 9
- 0.14459 1 2 cbr 210 ------- 1 0.0 2.0 9 9
+ 0.145 0 1 cbr 210 ------- 1 0.0 2.0 12 12
- 0.145 0 1 cbr 210 ------- 1 0.0 2.0 12 12
r 0.14793 1 2 cbr 210 ------- 1 0.0 2.0 7 7
r 0.14834 0 1 cbr 210 ------- 1 0.0 2.0 10 10
+ 0.14834 1 2 cbr 210 ------- 1 0.0 2.0 10 10
- 0.14834 1 2 cbr 210 ------- 1 0.0 2.0 10 10
+ 0.14875 0 1 cbr 210 ------- 1 0.0 2.0 13 13
- 0.14875 0 1 cbr 210 ------- 1 0.0 2.0 13 13
r 0.15168 1 2 cbr 210 ------- 1 0.0 2.0 8 8
r 0.15209 0 1 cbr 210 ------- 1 0.0 2.0 11 11
+ 0.15209 1 2 cbr 210 ------- 1 0.0 2.0 11 11
- 0.15209 1 2 cbr 210 ------- 1 0.0 2.0 11 11
+ 0.1525 0 1 cbr 210 ------- 1 0.0 2.0 14 14
- 0.1525 0 1 cbr 210 ------- 1 0.0 2.0 14 14
r 0.15543 1 2 cbr 210 ------- 1 0.0 2.0 9 9
r 0.15584 0 1 cbr 210 ------- 1 0.0 2.0 12 12
+ 0.15584 1 2 cbr 210 ------- 1 0.0 2.0 12 12
- 0.15584 1 2 cbr 210 ------- 1 0.0 2.0 12 12
+ 0.15625 0 1 cbr 210 ------- 1 0.0 2.0 15 15
- 0.15625 0 1 cbr 210 ------- 1 0.0 2.0 15 15
r 0.15918 1 2 cbr 210 ------- 1 0.0 2.0 10 10
r 0.15959 0 1 cbr 210 ------- 1 0.0 2.0 13 13
+ 0.15959 1 2 cbr 210 ------- 1 0.0 2.0 13 13
- 0.15959 1 2 cbr 210 ------- 1 0.0 2.0 13 13
+ 0.16 0 1 cbr 210 ------- 1 0.0 2.0 16 16
- 0.16 0 1 cbr 210 ------- 1 0.0 2.0 16 16
r 0.16293 1 2 cbr 210 ------- 1 0.0 2.0 11 11
r 0.16334 0 1 cbr 210 ------- 1 0.0 2.0 14 14
+ 0.16334 1 2 cbr 210 ------- 1 0.0 2.0 14 14
- 0.16334 1 2 cbr 210 ------- 1 0.0 2.0 14 14
+ 0.16375 0 1 cbr 210 ------- 1 0.0 2.0 17 17
- 0.16375 0 1 cbr 210 ------- 1 0.0 2.0 17 17
r 0.16668 1 2 cbr 210 ------- 1 0.0 2.0 12 12
r 0.16709 0 1 cbr 210 ------- 1 0.0 2.0 15 15
+ 0.16709 1 2 cbr 210 ------- 1 0.0 2.0 15 15
- 0.16709 1 2 cbr 210 ------- 1 0.0 2.0 15 15
+ 0.1675 0 1 cbr 210 ------- 1 0.0 2.0 18 18
- 0.1675 0 1 cbr 210 ------- 1 0.0 2.0 18 18
r 0.17043 1 2 cbr 210 ------- 1 0.0 2.0 13 13
r 0.17084 0 1 cbr 210 ------- 1 0.0 2.0 16 16
+ 0.17084 1 2 cbr 210 ------- 1 0.0 2.0 16 16
- 0.17084 1 2 cbr 210 ------- 1 0.0 2.0 16 16
+ 0.17125 0 1 cbr 210 ------- 1 0.0 2.0 19 19
- 0.17125 0 1 cbr 210 ------- 1 0.0 2.0 19 19
r 0.17418 1 2 cbr 210 ------- 1 0.0 2.0 14 14
r 0.17459 0 1 cbr 210 ------- 1 0.0 2.0 17 17
+ 0.17459 1 2 cbr 210 ------- 1 0.0 2.0 17 17
- 0.17459 1 2 cbr 210 ------- 1 0.0 2.0 17 17
+ 0.175 0 1 cbr 210 ------- 1 0.0 2.0 20 20
- 0.175 0 1 cbr 210 ------- 1 0.0 2.0 20 20
r 0.17793 1 2 cbr 210 ------- 1 0.0 2.0 15 15
r 0.17834 0 1 cbr 210 ------- 1 0.0 2.0 18 18
+ 0.17834 1 2 cbr 210 ------- 1 0.0 2.0 18 18
- 0.17834 1 2 cbr 210 ------- 1 0.0 2.0 18 18
+ 0.17875 0 1 cbr 210 ------- 1 0.0 2.0 21 21
- 0.17875 0 1 cbr 210 ------- 1 0.0 2.0 21 21
r 0.18168 1 2 cbr 210 ------- 1 0.0 2.0 16 16
r 0.18209 0 1 cbr 210 ------- 1 0.0 2.0 19 19
+ 0.18209 1 2 cbr 210 ------- 1 0.0 2.0 19 19
- 0.18209 1 2 cbr 210 ------- 1 0.0 2.0 19 19
+ 0.1825 0 1 cbr 210 ------- 1 0.0 2.0 22 22
- 0.1825 0 1 cbr 210 ------- 1 0.0 2.0 22 22
r 0.18543 1 2 cbr 210 ------- 1 0.0 2.0 17 17
r 0.18584 0 1 cbr 210 ------- 1 0.0 2.0 20 20
+ 0.18584 1 2 cbr 210 ------- 1 0.0 2.0 20 20
- 0.18584 1 2 cbr 210 ------- 1 0.0 2.0 20 20
+ 0.18625 0 1 cbr 210 ------- 1 0.0 2.0 23 23
- 0.18625 0 1 cbr 210 ------- 1 0.0 2.0 23 23
r 0.18918 1 2 cbr 210 ------- 1 0.0 2.0 18 18
r 0.18959 0 1 cbr 210 ------- 1 0.0 2.0 21 21
+ 0.18959 1 2 cbr 210 ------- 1 0.0 2.0 21 21
- 0.18959 1 2 cbr 210 ------- 1 0.0 2.0 21 21
+ 0.19 0 1 cbr 210 ------- 1 0.0 2.0 24 24
- 0.19 0 1 cbr 210 ------- 1 0.0 2.0 24 24
r 0.19293 1 2 cbr 210 ------- 1 0.0 2.0 19 19
r 0.19334 0 1 cbr 210 ------- 1 0.0 2.0 22 22
+ 0.19334 1 2 cbr 210 ------- 1 0.0 2.0 22 22
- 0.19334 1 2 cbr 210 ------- 1 0.0 2.0 22 22
+ 0.19375 0 1 cbr 210 ------- 1 0.0 2.0 25 25
- 0.19375 0 1 cbr 210 ------- 1 0.0 2.0 25 25
r 0.19668 1 2 cbr 210 ------- 1 0.0 2.0 20 20
r 0.19709 0 1 cbr 210 ------- 1 0.0 2.0 23 23
+ 0.19709 1 2 cbr 210 ------- 1 0.0 2.0 23 23
- 0.19709 1 2 cbr 210 ------- 1 0.0 2.0 23 23
+ 0.1975 0 1 cbr 210 ------- 1 0.0 2.0 26 26
- 0.1975 0 1 cbr 210 ------- 1 0.0 2.0 26 26
r 0.20043 1 2 cbr 210 ------- 1 0.0 2.0 21 21
r 0.20084 0 1 cbr 210 ------- 1 0.0 2.0 24 24
+ 0.20084 1 2 cbr 210 ------- 1 0.0 2.0 24 24
- 0.20084 1 2 cbr 210 ------- 1 0.0 2.0 24 24
+ 0.20125 0 1 cbr 210 ------- 1 0.0 2.0 27 27
- 0.20125 0 1 cbr 210 ------- 1 0.0 2.0 27 27
r 0.20418 1 2 cbr 210 ------- 1 0.0 2.0 22 22
r 0.20459 0 1 cbr 210 ------- 1 0.0 2.0 25 25
+ 0.20459 1 2 cbr 210 ------- 1 0.0 2.0 25 25
- 0.20459 1 2 cbr 210 ------- 1 0.0 2.0 25 25
+ 0.205 0 1 cbr 210 ------- 1 0.0 2.0 28 28
- 0.205 0 1 cbr 210 ------- 1 0.0 2.0 28 28
r 0.20793 1 2 cbr 210 ------- 1 0.0 2.0 23 23
r 0.20834 0 1 cbr 210 ------- 1 0.0 2.0 26 26
+ 0.20834 1 2 cbr 210 ------- 1 0.0 2.0 26 26
- 0.20834 1 2 cbr 210 ------- 1 0.0 2.0 26 26
+ 0.20875 0 1 cbr 210 ------- 1 0.0 2.0 29 29
- 0.20875 0 1 cbr 210 ------- 1 0.0 2.0 29 29
r 0.21168 1 2 cbr 210 ------- 1 0.0 2.0 24 24
r 0.21209 0 1 cbr 210 ------- 1 0.0 2.0 27 27
+ 0.21209 1 2 cbr 210 ------- 1 0.0 2.0 27 27
- 0.21209 1 2 cbr 210 ------- 1 0.0 2.0 27 27
+ 0.2125 0 1 cbr 210 ------- 1 0.0 2.0 30 30
- 0.2125 0 1 cbr 210 ------- 1 0.0 2.0 30 30
r 0.21543 1 2 cbr 210 ------- 1 0.0 2.0 25 25
r 0.21584 0 1 cbr 210 ------- 1 0.0 2.0 28 28
+ 0.21584 1 2 cbr 210 ------- 1 0.0 2.0 28 28
- 0.21584 1 2 cbr 210 ------- 1 0.0 2.0 28 28
+ 0.21625 0 1 cbr 210 ------- 1 0.0 2.0 31 31
- 0.21625 0 1 cbr 210 ------- 1 0.0 2.0 31 31
r 0.21918 1 2 cbr 210 ------- 1 0.0 2.0 26 26
r 0.21959 0 1 cbr 210 ------- 1 0.0 2.0 29 29
+ 0.21959 1 2 cbr 210 ------- 1 0.0 2.0 29 29
- 0.21959 1 2 cbr 210 ------- 1 0.0 2.0 29 29
+ 0.22 0 1 cbr 210 ------- 1 0.0 2.0 32 32
- 0.22 0 1 cbr 210 ------- 1 0.0 2.0 32 32
r 0.22293 1 2 cbr 210 ------- 1 0.0 2.0 27 27
r 0.22334 0 1 cbr 210 ------- 1 0.0 2.0 30 30
+ 0.22334 1 2 cbr 210 ------- 1 0.0 2.0 30 30
- 0.22334 1 2 cbr 210 ------- 1 0.0 2.0 30 30
+ 0.22375 0 1 cbr 210 ------- 1 0.0 2.0 33 33
- 0.22375 0 1 cbr 210 ------- 1 0.0 2.0 33 33
r 0.22668 1 2 cbr 210 ------- 1 0.0 2.0 28 28
r 0.22709 0 1 cbr 210 ------- 1 0.0 2.0 31 31
+ 0.22709 1 2 cbr 210 ------- 1 0.0 2.0 31 31
- 0.22709 1 2 cbr 210 ------- 1 0.0 2.0 31 31
+ 0.2275 0 1 cbr 210 ------- 1 0.0 2.0 34 34
- 0.2275 0 1 cbr 210 ------- 1 0.0 2.0 34 34
r 0.23043 1 2 cbr 210 ------- 1 0.0 2.0 29 29
r 0.23084 0 1 cbr 210 ------- 1 0.0 2.0 32 32
+ 0.23084 1 2 cbr 210 ------- 1 0.0 2.0 32 32
- 0.23084 1 2 cbr 210 ------- 1 0.0 2.0 32 32
+ 0.23125 0 1 cbr 210 ------- 1 0.0 2.0 35 35
- 0.23125 0 1 cbr 210 ------- 1 0.0 2.0 35 35
r 0.23418 1 2 cbr 210 ------- 1 0.0 2.0 30 30
r 0.23459 0 1 cbr 210 ------- 1 0.0 2.0 33 33
+ 0.23459 1 2 cbr 210 ------- 1 0.0 2.0 33 33
- 0.23459 1 2 cbr 210 ------- 1 0.0 2.0 33 33
+ 0.235 0 1 cbr 210 ------- 1 0.0 2.0 36 36
- 0.235 0 1 cbr 210 ------- 1 0.0 2.0 36 36
r 0.23793 1 2 cbr 210 ------- 1 0.0 2.0 31 31
r 0.23834 0 1 cbr 210 ------- 1 0.0 2.0 34 34
+ 0.23834 1 2 cbr 210 ------- 1 0.0 2.0 34 34
- 0.23834 1 2 cbr 210 ------- 1 0.0 2.0 34 34
+ 0.23875 0 1 cbr 210 ------- 1 0.0 2.0 37 37
- 0.23875 0 1 cbr 210 ------- 1 0.0 2.0 37 37
r 0.24168 1 2 cbr 210 ------- 1 0.0 2.0 32 32
r 0.24209 0 1 cbr 210 ------- 1 0.0 2.0 35 35
+ 0.24209 1 2 cbr 210 ------- 1 0.0 2.0 35 35
- 0.24209 1 2 cbr 210 ------- 1 0.0 2.0 35 35
+ 0.2425 0 1 cbr 210 ------- 1 0.0 2.0 38 38
- 0.2425 0 1 cbr 210 ------- 1 0.0 2.0 38 38
r 0.24543 1 2 cbr 210 ------- 1 0.0 2.0 33 33
r 0.24584 0 1 cbr 210 ------- 1 0.0 2.0 36 36
+ 0.24584 1 2 cbr 210 ------- 1 0.0 2.0 36 36
- 0.24584 1 2 cbr 210 ------- 1 0.0 2.0 36 36
+ 0.24625 0 1 cbr 210 ------- 1 0.0 2.0 39 39
- 0.24625 0 1 cbr 210 ------- 1 0.0 2.0 39 39
r 0.24918 1 2 cbr 210 ------- 1 0.0 2.0 34 34
r 0.24959 0 1 cbr 210 ------- 1 0.0 2.0 37 37
+ 0.24959 1 2 cbr 210 ------- 1 0.0 2.0 37 37
- 0.24959 1 2 cbr 210 ------- 1 0.0 2.0 37 37
+ 0.25 0 1 cbr 210 ------- 1 0.0 2.0 40 40
- 0.25 0 1 cbr 210 ------- 1 0.0 2.0 40 40
r 0.25293 1 2 cbr 210 ------- 1 0.0 2.0 35 35
r 0.25334 0 1 cbr 210 ------- 1 0.0 2.0 38 38
+ 0.25334 1 2 cbr 210 ------- 1 0.0 2.0 38 38
- 0.25334 1 2 cbr 210 ------- 1 0.0 2.0 38 38
+ 0.25375 0 1 cbr 210 ------- 1 0.0 2.0 41 41
- 0.25375 0 1 cbr 210 ------- 1 0.0 2.0 41 41
r 0.25668 1 2 cbr 210 ------- 1 0.0 2.0 36 36
r 0.25709 0 1 cbr 210 ------- 1 0.0 2.0 39 39
+ 0.25709 1 2 cbr 210 ------- 1 0.0 2.0 39 39
- 0.25709 1 2 cbr 210 ------- 1 0.0 2.0 39 39
+ 0.2575 0 1 cbr 210 ------- 1 0.0 2.0 42 42
- 0.2575 0 1 cbr 210 ------- 1 0.0 2.0 42 42
r 0.26043 1 2 cbr 210 ------- 1 0.0 2.0 37 37
r 0.26084 0 1 cbr 210 ------- 1 0.0 2.0 40 40
+ 0.26084 1 2 cbr 210 ------- 1 0.0 2.0 40 40
- 0.26084 1 2 cbr 210 ------- 1 0.0 2.0 40 40
+ 0.26125 0 1 cbr 210 ------- 1 0.0 2.0 43 43
- 0.26125 0 1 cbr 210 ------- 1 0.0 2.0 43 43
r 0.26418 1 2 cbr 210 ------- 1 0.0 2.0 38 38
r 0.26459 0 1 cbr 210 ------- 1 0.0 2.0 41 41
+ 0.26459 1 2 cbr 210 ------- 1 0.0 2.0 41 41
- 0.26459 1 2 cbr 210 ------- 1 0.0 2.0 41 41
+ 0.265 0 1 cbr 210 ------- 1 0.0 2.0 44 44
- 0.265 0 1 cbr 210 ------- 1 0.0 2.0 44 44
r 0.26793 1 2 cbr 210 ------- 1 0.0 2.0 39 39
r 0.26834 0 1 cbr 210 ------- 1 0.0 2.0 42 42
+ 0.26834 1 2 cbr 210 ------- 1 0.0 2.0 42 42
- 0.26834 1 2 cbr 210 ------- 1 0.0 2.0 42 42
+ 0.26875 0 1 cbr 210 ------- 1 0.0 2.0 45 45
- 0.26875 0 1 cbr 210 ------- 1 0.0 2.0 45 45
r 0.27168 1 2 cbr 210 ------- 1 0.0 2.0 40 40
r 0.27209 0 1 cbr 210 ------- 1 0.0 2.0 43 43
+ 0.27209 1 2 cbr 210 ------- 1 0.0 2.0 43 43
- 0.27209 1 2 cbr 210 ------- 1 0.0 2.0 43 43
+ 0.2725 0 1 cbr 210 ------- 1 0.0 2.0 46 46
- 0.2725 0 1 cbr 210 ------- 1 0.0 2.0 46 46
r 0.27543 1 2 cbr 210 ------- 1 0.0 2.0 41 41
r 0.27584 0 1 cbr 210 ------- 1 0.0 2.0 44 44
+ 0.27584 1 2 cbr 210 ------- 1 0.0 2.0 44 44
- 0.27584 1 2 cbr 210 ------- 1 0.0 2.0 44 44
+ 0.27625 0 1 cbr 210 ------- 1 0.0 2.0 47 47
- 0.27625 0 1 cbr 210 ------- 1 0.0 2.0 47 47
r 0.27918 1 2 cbr 210 ------- 1 0.0 2.0 42 42
r 0.27959 0 1 cbr 210 ------- 1 0.0 2.0 45 45
+ 0.27959 1 2 cbr 210 ------- 1 0.0 2.0 45 45
- 0.27959 1 2 cbr 210 ------- 1 0.0 2.0 45 45
+ 0.28 0 1 cbr 210 ------- 1 0.0 2.0 48 48
- 0.28 0 1 cbr 210 ------- 1 0.0 2.0 48 48
r 0.28293 1 2 cbr 210 ------- 1 0.0 2.0 43 43
r 0.28334 0 1 cbr 210 ------- 1 0.0 2.0 46 46
+ 0.28334 1 2 cbr 210 ------- 1 0.0 2.0 46 46
- 0.28334 1 2 cbr 210 ------- 1 0.0 2.0 46 46
+ 0.28375 0 1 cbr 210 ------- 1 0.0 2.0 49 49
- 0.28375 0 1 cbr 210 ------- 1 0.0 2.0 49 49
r 0.28668 1 2 cbr 210 ------- 1 0.0 2.0 44 44
r 0.28709 0 1 cbr 210 ------- 1 0.0 2.0 47 47
+ 0.28709 1 2 cbr 210 ------- 1 0.0 2.0 47 47
- 0.28709 1 2 cbr 210 ------- 1 0.0 2.0 47 47
+ 0.2875 0 1 cbr 210 ------- 1 0.0 2.0 50 50
- 0.2875 0 1 cbr 210 ------- 1 0.0 2.0 50 50
r 0.29043 1 2 cbr 210 ------- 1 0.0 2.0 45 45
r 0.29084 0 1 cbr 210 ------- 1 0.0 2.0 48 48
+ 0.29084 1 2 cbr 210 ------- 1 0.0 2.0 48 48
- 0.29084 1 2 cbr 210 ------- 1 0.0 2.0 48 48
+ 0.29125 0 1 cbr 210 ------- 1 0.0 2.0 51 51
- 0.29125 0 1 cbr 210 ------- 1 0.0 2.0 51 51
r 0.29418 1 2 cbr 210 ------- 1 0.0 2.0 46 46
r 0.29459 0 1 cbr 210 ------- 1 0.0 2.0 49 49
+ 0.29459 1 2 cbr 210 ------- 1 0.0 2.0 49 49
- 0.29459 1 2 cbr 210 ------- 1 0.0 2.0 49 49
+ 0.295 0 1 cbr 210 ------- 1 0.0 2.0 52 52
- 0.295 0 1 cbr 210 ------- 1 0.0 2.0 52 52
r 0.29793 1 2 cbr 210 ------- 1 0.0 2.0 47 47
r 0.29834 0 1 cbr 210 ------- 1 0.0 2.0 50 50
+ 0.29834 1 2 cbr 210 ------- 1 0.0 2.0 50 50
- 0.29834 1 2 cbr 210 ------- 1 0.0 2.0 50 50
+ 0.29875 0 1 cbr 210 ------- 1 0.0 2.0 53 53
- 0.29875 0 1 cbr 210 ------- 1 0.0 2.0 53 53
r 0.30168 1 2 cbr 210 ------- 1 0.0 2.0 48 48
r 0.30209 0 1 cbr 210 ------- 1 0.0 2.0 51 51
+ 0.30209 1 2 cbr 210 ------- 1 0.0 2.0 51 51
- 0.30209 1 2 cbr 210 ------- 1 0.0 2.0 51 51
+ 0.3025 0 1 cbr 210 ------- 1 0.0 2.0 54 54
- 0.3025 0 1 cbr 210 ------- 1 0.0 2.0 54 54
r 0.30543 1 2 cbr 210 ------- 1 0.0 2.0 49 49
r 0.30584 0 1 cbr 210 ------- 1 0.0 2.0 52 52
+ 0.30584 1 2 cbr 210 ------- 1 0.0 2.0 52 52
- 0.30584 1 2 cbr 210 ------- 1 0.0 2.0 52 52
+ 0.30625 0 1 cbr 210 ------- 1 0.0 2.0 55 55
- 0.30625 0 1 cbr 210 ------- 1 0.0 2.0 55 55
r 0.30918 1 2 cbr 210 ------- 1 0.0 2.0 50 50
r 0.30959 0 1 cbr 210 ------- 1 0.0 2.0 53 53
+ 0.30959 1 2 cbr 210 ------- 1 0.0 2.0 53 53
- 0.30959 1 2 cbr 210 ------- 1 0.0 2.0 53 53
+ 0.31 0 1 cbr 210 ------- 1 0.0 2.0 56 56
- 0.31 0 1 cbr 210 ------- 1 0.0 2.0 56 56
r 0.31293 1 2 cbr 210 ------- 1 0.0 2.0 51 51
r 0.31334 0 1 cbr 210 ------- 1 0.0 2.0 54 54
+ 0.31334 1 2 cbr 210 ------- 1 0.0 2.0 54 54
- 0.31334 1 2 cbr 210 ------- 1 0.0 2.0 54 54
+ 0.31375 0 1 cbr 210 ------- 1 0.0 2.0 57 57
- 0.31375 0 1 cbr 210 ------- 1 0.0 2.0 57 57
r 0.31668 1 2 cbr 210 ------- 1 0.0 2.0 52 52
r 0.31709 0 1 cbr 210 ------- 1 0.0 2.0 55 55
+ 0.31709 1 2 cbr 210 ------- 1 0.0 2.0 55 55
- 0.31709 1 2 cbr 210 ------- 1 0.0 2.0 55 55
+ 0.3175 0 1 cbr 210 ------- 1 0.0 2.0 58 58
- 0.3175 0 1 cbr 210 ------- 1 0.0 2.0 58 58
r 0.32043 1 2 cbr 210 ------- 1 0.0 2.0 53 53
r 0.32084 0 1 cbr 210 ------- 1 0.0 2.0 56 56
+ 0.32084 1 2 cbr 210 ------- 1 0.0 2.0 56 56
- 0.32084 1 2 cbr 210 ------- 1 0.0 2.0 56 56
+ 0.32125 0 1 cbr 210 ------- 1 0.0 2.0 59 59
- 0.32125 0 1 cbr 210 ------- 1 0.0 2.0 59 59
r 0.32418 1 2 cbr 210 ------- 1 0.0 2.0 54 54
r 0.32459 0 1 cbr 210 ------- 1 0.0 2.0 57 57
+ 0.32459 1 2 cbr 210 ------- 1 0.0 2.0 57 57
- 0.32459 1 2 cbr 210 ------- 1 0.0 2.0 57 57
+ 0.325 0 1 cbr 210 ------- 1 0.0 2.0 60 60
- 0.325 0 1 cbr 210 ------- 1 0.0 2.0 60 60
r 0.32793 1 2 cbr 210 ------- 1 0.0 2.0 55 55
r 0.32834 0 1 cbr 210 ------- 1 0.0 2.0 58 58
+ 0.32834 1 2 cbr 210 ------- 1 0.0 2.0 58 58
- 0.32834 1 2 cbr 210 ------- 1 0.0 2.0 58 58
+ 0.32875 0 1 cbr 210 ------- 1 0.0 2.0 61 61
- 0.32875 0 1 cbr 210 ------- 1 0.0 2.0 61 61
r 0.33168 1 2 cbr 210 ------- 1 0.0 2.0 56 56
r 0.33209 0 1 cbr 210 ------- 1 0.0 2.0 59 59
+ 0.33209 1 2 cbr 210 ------- 1 0.0 2.0 59 59
- 0.33209 1 2 cbr 210 ------- 1 0.0 2.0 59 59
+ 0.3325 0 1 cbr 210 ------- 1 0.0 2.0 62 62
- 0.3325 0 1 cbr 210 ------- 1 0.0 2.0 62 62
r 0.33543 1 2 cbr 210 ------- 1 0.0 2.0 57 57
r 0.33584 0 1 cbr 210 ------- 1 0.0 2.0 60 60
+ 0.33584 1 2 cbr 210 ------- 1 0.0 2.0 60 60
- 0.33584 1 2 cbr 210 ------- 1 0.0 2.0 60 60
+ 0.33625 0 1 cbr 210 ------- 1 0.0 2.0 63 63
- 0.33625 0 1 cbr 210 ------- 1 0.0 2.0 63 63
r 0.33918 1 2 cbr 210 ------- 1 0.0 2.0 58 58
r 0.33959 0 1 cbr 210 ------- 1 0.0 2.0 61 61
+ 0.33959 1 2 cbr 210 ------- 1 0.0 2.0 61 61
- 0.33959 1 2 cbr 210 ------- 1 0.0 2.0 61 61
+ 0.34 0 1 cbr 210 ------- 1 0.0 2.0 64 64
- 0.34 0 1 cbr 210 ------- 1 0.0 2.0 64 64
r 0.34293 1 2 cbr 210 ------- 1 0.0 2.0 59 59
r 0.34334 0 1 cbr 210 ------- 1 0.0 2.0 62 62
+ 0.34334 1 2 cbr 210 ------- 1 0.0 2.0 62 62
- 0.34334 1 2 cbr 210 ------- 1 0.0 2.0 62 62
+ 0.34375 0 1 cbr 210 ------- 1 0.0 2.0 65 65
- 0.34375 0 1 cbr 210 ------- 1 0.0 2.0 65 65
r 0.34668 1 2 cbr 210 ------- 1 0.0 2.0 60 60
r 0.34709 0 1 cbr 210 ------- 1 0.0 2.0 63 63
+ 0.34709 1 2 cbr 210 ------- 1 0.0 2.0 63 63
- 0.34709 1 2 cbr 210 ------- 1 0.0 2.0 63 63
+ 0.3475 0 1 cbr 210 ------- 1 0.0 2.0 66 66
- 0.3475 0 1 cbr 210 ------- 1 0.0 2.0 66 66
r 0.35043 1 2 cbr 210 ------- 1 0.0 2.0 61 61
r 0.35084 0 1 cbr 210 ------- 1 0.0 2.0 64 64
+ 0.35084 1 2 cbr 210 ------- 1 0.0 2.0 64 64
- 0.35084 1 2 cbr 210 ------- 1 0.0 2.0 64 64
+ 0.35125 0 1 cbr 210 ------- 1 0.0 2.0 67 67
- 0.35125 0 1 cbr 210 ------- 1 0.0 2.0 67 67
r 0.35418 1 2 cbr 210 ------- 1 0.0 2.0 62 62
r 0.35459 0 1 cbr 210 ------- 1 0.0 2.0 65 65
+ 0.35459 1 2 cbr 210 ------- 1 0.0 2.0 65 65
- 0.35459 1 2 cbr 210 ------- 1 0.0 2.0 65 65
+ 0.355 0 1 cbr 210 ------- 1 0.0 2.0 68 68
- 0.355 0 1 cbr 210 ------- 1 0.0 2.0 68 68
r 0.35793 1 2 cbr 210 ------- 1 0.0 2.0 63 63
r 0.35834 0 1 cbr 210 ------- 1 0.0 2.0 66 66
+ 0.35834 1 2 cbr 210 ------- 1 0.0 2.0 66 66
- 0.35834 1 2 cbr 210 ------- 1 0.0 2.0 66 66
+ 0.35875 0 1 cbr 210 ------- 1 0.0 2.0 69 69
- 0.35875 0 1 cbr 210 ------- 1 0.0 2.0 69 69
r 0.36168 1 2 cbr 210 ------- 1 0.0 2.0 64 64
r 0.36209 0 1 cbr 210 ------- 1 0.0 2.0 67 67
+ 0.36209 1 2 cbr 210 ------- 1 0.0 2.0 67 67
- 0.36209 1 2 cbr 210 ------- 1 0.0 2.0 67 67
+ 0.3625 0 1 cbr 210 ------- 1 0.0 2.0 70 70
- 0.3625 0 1 cbr 210 ------- 1 0.0 2.0 70 70
r 0.36543 1 2 cbr 210 ------- 1 0.0 2.0 65 65
r 0.36584 0 1 cbr 210 ------- 1 0.0 2.0 68 68
+ 0.36584 1 2 cbr 210 ------- 1 0.0 2.0 68 68
- 0.36584 1 2 cbr 210 ------- 1 0.0 2.0 68 68
+ 0.36625 0 1 cbr 210 ------- 1 0.0 2.0 71 71
- 0.36625 0 1 cbr 210 ------- 1 0.0 2.0 71 71
r 0.36918 1 2 cbr 210 ------- 1 0.0 2.0 66 66
r 0.36959 0 1 cbr 210 ------- 1 0.0 2.0 69 69
+ 0.36959 1 2 cbr 210 ------- 1 0.0 2.0 69 69
- 0.36959 1 2 cbr 210 ------- 1 0.0 2.0 69 69
+ 0.37 0 1 cbr 210 ------- 1 0.0 2.0 72 72
- 0.37 0 1 cbr 210 ------- 1 0.0 2.0 72 72
r 0.37293 1 2 cbr 210 ------- 1 0.0 2.0 67 67
r 0.37334 0 1 cbr 210 ------- 1 0.0 2.0 70 70
+ 0.37334 1 2 cbr 210 ------- 1 0.0 2.0 70 70
- 0.37334 1 2 cbr 210 ------- 1 0.0 2.0 70 70
+ 0.37375 0 1 cbr 210 ------- 1 0.0 2.0 73 73
- 0.37375 0 1 cbr 210 ------- 1 0.0 2.0 73 73
r 0.37668 1 2 cbr 210 ------- 1 0.0 2.0 68 68
r 0.37709 0 1 cbr 210 ------- 1 0.0 2.0 71 71
+ 0.37709 1 2 cbr 210 ------- 1 0.0 2.0 71 71
- 0.37709 1 2 cbr 210 ------- 1 0.0 2.0 71 71
+ 0.3775 0 1 cbr 210 ------- 1 0.0 2.0 74 74
- 0.3775 0 1 cbr 210 ------- 1 0.0 2.0 74 74
r 0.38043 1 2 cbr 210 ------- 1 0.0 2.0 69 69
r 0.38084 0 1 cbr 210 ------- 1 0.0 2.0 72 72
+ 0.38084 1 2 cbr 210 ------- 1 0.0 2.0 72 72
- 0.38084 1 2 cbr 210 ------- 1 0.0 2.0 72 72
+ 0.38125 0 1 cbr 210 ------- 1 0.0 2.0 75 75
- 0.38125 0 1 cbr 210 ------- 1 0.0 2.0 75 75
r 0.38418 1 2 cbr 210 ------- 1 0.0 2.0 70 70
r 0.38459 0 1 cbr 210 ------- 1 0.0 2.0 73 73
+ 0.38459 1 2 cbr 210 ------- 1 0.0 2.0 73 73
- 0.38459 1 2 cbr 210 ------- 1 0.0 2.0 73 73
+ 0.385 0 1 cbr 210 ------- 1 0.0 2.0 76 76
- 0.385 0 1 cbr 210 ------- 1 0.0 2.0 76 76
r 0.38793 1 2 cbr 210 ------- 1 0.0 2.0 71 71
r 0.38834 0 1 cbr 210 ------- 1 0.0 2.0 74 74
+ 0.38834 1 2 cbr 210 ------- 1 0.0 2.0 74 74
- 0.38834 1 2 cbr 210 ------- 1 0.0 2.0 74 74
+ 0.38875 0 1 cbr 210 ------- 1 0.0 2.0 77 77
- 0.38875 0 1 cbr 210 ------- 1 0.0 2.0 77 77
r 0.39168 1 2 cbr 210 ------- 1 0.0 2.0 72 72
r 0.39209 0 1 cbr 210 ------- 1 0.0 2.0 75 75
+ 0.39209 1 2 cbr 210 ------- 1 0.0 2.0 75 75
- 0.39209 1 2 cbr 210 ------- 1 0.0 2.0 75 75
+ 0.3925 0 1 cbr 210 ------- 1 0.0 2.0 78 78
- 0.3925 0 1 cbr 210 ------- 1 0.0 2.0 78 78
r 0.39543 1 2 cbr 210 ------- 1 0.0 2.0 73 73
r 0.39584 0 1 cbr 210 ------- 1 0.0 2.0 76 76
+ 0.39584 1 2 cbr 210 ------- 1 0.0 2.0 76 76
- 0.39584 1 2 cbr 210 ------- 1 0.0 2.0 76 76
+ 0.39625 0 1 cbr 210 ------- 1 0.0 2.0 79 79
- 0.39625 0 1 cbr 210 ------- 1 0.0 2.0 79 79
r 0.39918 1 2 cbr 210 ------- 1 0.0 2.0 74 74
r 0.39959 0 1 cbr 210 ------- 1 0.0 2.0 77 77
+ 0.39959 1 2 cbr 210 ------- 1 0.0 2.0 77 77
- 0.39959 1 2 cbr 210 ------- 1 0.0 2.0 77 77
+ 0.4 0 1 cbr 210 ------- 1 0.0 2.0 80 80
- 0.4 0 1 cbr 210 ------- 1 0.0 2.0 80 80
r 0.40293 1 2 cbr 210 ------- 1 0.0 2.0 75 75
r 0.40334 0 1 cbr 210 ------- 1 0.0 2.0 78 78
+ 0.40334 1 2 cbr 210 ------- 1 0.0 2.0 78 78
- 0.40334 1 2 cbr 210 ------- 1 0.0 2.0 78 78
+ 0.40375 0 1 cbr 210 ------- 1 0.0 2.0 81 81
- 0.40375 0 1 cbr 210 ------- 1 0.0 2.0 81 81
r 0.40668 1 2 cbr 210 ------- 1 0.0 2.0 76 76
r 0.40709 0 1 cbr 210 ------- 1 0.0 2.0 79 79
+ 0.40709 1 2 cbr 210 ------- 1 0.0 2.0 79 79
- 0.40709 1 2 cbr 210 ------- 1 0.0 2.0 79 79
+ 0.4075 0 1 cbr 210 ------- 1 0.0 2.0 82 82
- 0.4075 0 1 cbr 210 ------- 1 0.0 2.0 82 82
r 0.41043 1 2 cbr 210 ------- 1 0.0 2.0 77 77
r 0.41084 0 1 cbr 210 ------- 1 0.0 2.0 80 80
+ 0.41084 1 2 cbr 210 ------- 1 0.0 2.0 80 80
- 0.41084 1 2 cbr 210 ------- 1 0.0 2.0 80 80
+ 0.41125 0 1 cbr 210 ------- 1 0.0 2.0 83 83
- 0.41125 0 1 cbr 210 ------- 1 0.0 2.0 83 83
r 0.41418 1 2 cbr 210 ------- 1 0.0 2.0 78 78
r 0.41459 0 1 cbr 210 ------- 1 0.0 2.0 81 81
+ 0.41459 1 2 cbr 210 ------- 1 0.0 2.0 81 81
- 0.41459 1 2 cbr 210 ------- 1 0.0 2.0 81 81
+ 0.415 0 1 cbr 210 ------- 1 0.0 2.0 84 84
- 0.415 0 1 cbr 210 ------- 1 0.0 2.0 84 84
r 0.41793 1 2 cbr 210 ------- 1 0.0 2.0 79 79
r 0.41834 0 1 cbr 210 ------- 1 0.0 2.0 82 82
+ 0.41834 1 2 cbr 210 ------- 1 0.0 2.0 82 82
- 0.41834 1 2 cbr 210 ------- 1 0.0 2.0 82 82
+ 0.41875 0 1 cbr 210 ------- 1 0.0 2.0 85 85
- 0.41875 0 1 cbr 210 ------- 1 0.0 2.0 85 85
r 0.42168 1 2 cbr 210 ------- 1 0.0 2.0 80 80
r 0.42209 0 1 cbr 210 ------- 1 0.0 2.0 83 83
+ 0.42209 1 2 cbr 210 ------- 1 0.0 2.0 83 83
- 0.42209 1 2 cbr 210 ------- 1 0.0 2.0 83 83
+ 0.4225 0 1 cbr 210 ------- 1 0.0 2.0 86 86
- 0.4225 0 1 cbr 210 ------- 1 0.0 2.0 86 86
r 0.42543 1 2 cbr 210 ------- 1 0.0 2.0 81 81
r 0.42584 0 1 cbr 210 ------- 1 0.0 2.0 84 84
+ 0.42584 1 2 cbr 210 ------- 1 0.0 2.0 84 84
- 0.42584 1 2 cbr 210 ------- 1 0.0 2.0 84 84
+ 0.42625 0 1 cbr 210 ------- 1 0.0 2.0 87 87
- 0.42625 0 1 cbr 210 ------- 1 0.0 2.0 87 87
r 0.42918 1 2 cbr 210 ------- 1 0.0 2.0 82 82
r 0.42959 0 1 cbr 210 ------- 1 0.0 2.0 85 85
+ 0.42959 1 2 cbr 210 ------- 1 0.0 2.0 85 85
- 0.42959 1 2 cbr 210 ------- 1 0.0 2.0 85 85
+ 0.43 0 1 cbr 210 ------- 1 0.0 2.0 88 88
- 0.43 0 1 cbr 210 ------- 1 0.0 2.0 88 88
r 0.43293 1 2 cbr 210 ------- 1 0.0 2.0 83 83
r 0.43334 0 1 cbr 210 ------- 1 0.0 2.0 86 86
+ 0.43334 1 2 cbr 210 ------- 1 0.0 2.0 86 86
- 0.43334 1 2 cbr 210 ------- 1 0.0 2.0 86 86
+ 0.43375 0 1 cbr 210 ------- 1 0.0 2.0 89 89
- 0.43375 0 1 cbr 210 ------- 1 0.0 2.0 89 89
r 0.43668 1 2 cbr 210 ------- 1 0.0 2.0 84 84
r 0.43709 0 1 cbr 210 ------- 1 0.0 2.0 87 87
+ 0.43709 1 2 cbr 210 ------- 1 0.0 2.0 87 87
- 0.43709 1 2 cbr 210 ------- 1 0.0 2.0 87 87
+ 0.4375 0 1 cbr 210 ------- 1 0.0 2.0 90 90
- 0.4375 0 1 cbr 210 ------- 1 0.0 2.0 90 90
r 0.44043 1 2 cbr 210 ------- 1 0.0 2.0 85 85
r 0.44084 0 1 cbr 210 ------- 1 0.0 2.0 88 88
+ 0.44084 1 2 cbr 210 ------- 1 0.0 2.0 88 88
- 0.44084 1 2 cbr 210 ------- 1 0.0 2.0 88 88
+ 0.44125 0 1 cbr 210 ------- 1 0.0 2.0 91 91
- 0.44125 0 1 cbr 210 ------- 1 0.0 2.0 91 91
r 0.44418 1 2 cbr 210 ------- 1 0.0 2.0 86 86
r 0.44459 0 1 cbr 210 ------- 1 0.0 2.0 89 89
+ 0.44459 1 2 cbr 210 ------- 1 0.0 2.0 89 89
- 0.44459 1 2 cbr 210 ------- 1 0.0 2.0 89 89
+ 0.445 0 1 cbr 210 ------- 1 0.0 2.0 92 92
- 0.445 0 1 cbr 210 ------- 1 0.0 2.0 92 92
r 0.44793 1 2 cbr 210 ------- 1 0.0 2.0 87 87
r 0.44834 0 1 cbr 210 ------- 1 0.0 2.0 90 90
+ 0.44834 1 2 cbr 210 ------- 1 0.0 2.0 90 90
- 0.44834 1 2 cbr 210 ------- 1 0.0 2.0 90 90
+ 0.44875 0 1 cbr 210 ------- 1 0.0 2.0 93 93
- 0.44875 0 1 cbr 210 ------- 1 0.0 2.0 93 93
r 0.45168 1 2 cbr 210 ------- 1 0.0 2.0 88 88
r 0.45209 0 1 cbr 210 ------- 1 0.0 2.0 91 91
+ 0.45209 1 2 cbr 210 ------- 1 0.0 2.0 91 91
- 0.45209 1 2 cbr 210 ------- 1 0.0 2.0 91 91
+ 0.4525 0 1 cbr 210 ------- 1 0.0 2.0 94 94
- 0.4525 0 1 cbr 210 ------- 1 0.0 2.0 94 94
r 0.45543 1 2 cbr 210 ------- 1 0.0 2.0 89 89
r 0.45584 0 1 cbr 210 ------- 1 0.0 2.0 92 92
+ 0.45584 1 2 cbr 210 ------- 1 0.0 2.0 92 92
- 0.45584 1 2 cbr 210 ------- 1 0.0 2.0 92 92
+ 0.45625 0 1 cbr 210 ------- 1 0.0 2.0 95 95
- 0.45625 0 1 cbr 210 ------- 1 0.0 2.0 95 95
r 0.45918 1 2 cbr 210 ------- 1 0.0 2.0 90 90
r 0.45959 0 1 cbr 210 ------- 1 0.0 2.0 93 93
+ 0.45959 1 2 cbr 210 ------- 1 0.0 2.0 93 93
- 0.45959 1 2 cbr 210 ------- 1 0.0 2.0 93 93
+ 0.46 0 1 cbr 210 ------- 1 0.0 2.0 96 96
- 0.46 0 1 cbr 210 ------- 1 0.0 2.0 96 96
r 0.46293 1 2 cbr 210 ------- 1 0.0 2.0 91 91
r 0.46334 0 1 cbr 210 ------- 1 0.0 2.0 94 94
+ 0.46334 1 2 cbr 210 ------- 1 0.0 2.0 94 94
- 0.46334 1 2 cbr 210 ------- 1 0.0 2.0 94 94
+ 0.46375 0 1 cbr 210 ------- 1 0.0 2.0 97 97
- 0.46375 0 1 cbr 210 ------- 1 0.0 2.0 97 97
r 0.46668 1 2 cbr 210 ------- 1 0.0 2.0 92 92
r 0.46709 0 1 cbr 210 ------- 1 0.0 2.0 95 95
+ 0.46709 1 2 cbr 210 ------- 1 0.0 2.0 95 95
- 0.46709 1 2 cbr 210 ------- 1 0.0 2.0 95 95
+ 0.4675 0 1 cbr 210 ------- 1 0.0 2.0 98 98
- 0.4675 0 1 cbr 210 ------- 1 0.0 2.0 98 98
r 0.47043 1 2 cbr 210 ------- 1 0.0 2.0 93 93
r 0.47084 0 1 cbr 210 ------- 1 0.0 2.0 96 96
+ 0.47084 1 2 cbr 210 ------- 1 0.0 2.0 96 96
- 0.47084 1 2 cbr 210 ------- 1 0.0 2.0 96 96
+ 0.47125 0 1 cbr 210 ------- 1 0.0 2.0 99 99
- 0.47125 0 1 cbr 210 ------- 1 0.0 2.0 99 99
r 0.47418 1 2 cbr 210 ------- 1 0.0 2.0 94 94
r 0.47459 0 1 cbr 210 ------- 1 0.0 2.0 97 97
+ 0.47459 1 2 cbr 210 ------- 1 0.0 2.0 97 97
- 0.47459 1 2 cbr 210 ------- 1 0.0 2.0 97 97
+ 0.475 0 1 cbr 210 ------- 1 0.0 2.0 100 100
- 0.475 0 1 cbr 210 ------- 1 0.0 2.0 100 100
r 0.47793 1 2 cbr 210 ------- 1 0.0 2.0 95 95
r 0.47834 0 1 cbr 210 ------- 1 0.0 2.0 98 98
+ 0.47834 1 2 cbr 210 ------- 1 0.0 2.0 98 98
- 0.47834 1 2 cbr 210 ------- 1 0.0 2.0 98 98
+ 0.47875 0 1 cbr 210 ------- 1 0.0 2.0 101 101
- 0.47875 0 1 cbr 210 ------- 1 0.0 2.0 101 101
r 0.48168 1 2 cbr 210 ------- 1 0.0 2.0 96 96
r 0.48209 0 1 cbr 210 ------- 1 0.0 2.0 99 99
+ 0.48209 1 2 cbr 210 ------- 1 0.0 2.0 99 99
- 0.48209 1 2 cbr 210 ------- 1 0.0 2.0 99 99
+ 0.4825 0 1 cbr 210 ------- 1 0.0 2.0 102 102
- 0.4825 0 1 cbr 210 ------- 1 0.0 2.0 102 102
r 0.48543 1 2 cbr 210 ------- 1 0.0 2.0 97 97
r 0.48584 0 1 cbr 210 ------- 1 0.0 2.0 100 100
+ 0.48584 1 2 cbr 210 ------- 1 0.0 2.0 100 100
- 0.48584 1 2 cbr 210 ------- 1 0.0 2.0 100 100
+ 0.48625 0 1 cbr 210 ------- 1 0.0 2.0 103 103
- 0.48625 0 1 cbr 210 ------- 1 0.0 2.0 103 103
r 0.48918 1 2 cbr 210 ------- 1 0.0 2.0 98 98
r 0.48959 0 1 cbr 210 ------- 1 0.0 2.0 101 101
+ 0.48959 1 2 cbr 210 ------- 1 0.0 2.0 101 101
- 0.48959 1 2 cbr 210 ------- 1 0.0 2.0 101 101
+ 0.49 0 1 cbr 210 ------- 1 0.0 2.0 104 104
- 0.49 0 1 cbr 210 ------- 1 0.0 2.0 104 104
r 0.49293 1 2 cbr 210 ------- 1 0.0 2.0 99 99
r 0.49334 0 1 cbr 210 ------- 1 0.0 2.0 102 102
+ 0.49334 1 2 cbr 210 ------- 1 0.0 2.0 102 102
- 0.49334 1 2 cbr 210 ------- 1 0.0 2.0 102 102
+ 0.49375 0 1 cbr 210 ------- 1 0.0 2.0 105 105
- 0.49375 0 1 cbr 210 ------- 1 0.0 2.0 105 105
r 0.49668 1 2 cbr 210 ------- 1 0.0 2.0 100 100
r 0.49709 0 1 cbr 210 ------- 1 0.0 2.0 103 103
+ 0.49709 1 2 cbr 210 ------- 1 0.0 2.0 103 103
- 0.49709 1 2 cbr 210 ------- 1 0.0 2.0 103 103
+ 0.4975 0 1 cbr 210 ------- 1 0.0 2.0 106 106
- 0.4975 0 1 cbr 210 ------- 1 0.0 2.0 106 106
r 0.50043 1 2 cbr 210 ------- 1 0.0 2.0 101 101
r 0.50084 0 1 cbr 210 ------- 1 0.0 2.0 104 104
+ 0.50084 1 2 cbr 210 ------- 1 0.0 2.0 104 104
- 0.50084 1 2 cbr 210 ------- 1 0.0 2.0 104 104
+ 0.50125 0 1 cbr 210 ------- 1 0.0 2.0 107 107
- 0.50125 0 1 cbr 210 ------- 1 0.0 2.0 107 107
r 0.50418 1 2 cbr 210 ------- 1 0.0 2.0 102 102
r 0.50459 0 1 cbr 210 ------- 1 0.0 2.0 105 105
+ 0.50459 1 2 cbr 210 ------- 1 0.0 2.0 105 105
- 0.50459 1 2 cbr 210 ------- 1 0.0 2.0 105 105
+ 0.505 0 1 cbr 210 ------- 1 0.0 2.0 108 108
- 0.505 0 1 cbr 210 ------- 1 0.0 2.0 108 108
r 0.50793 1 2 cbr 210 ------- 1 0.0 2.0 103 103
r 0.50834 0 1 cbr 210 ------- 1 0.0 2.0 106 106
+ 0.50834 1 2 cbr 210 ------- 1 0.0 2.0 106 106
- 0.50834 1 2 cbr 210 ------- 1 0.0 2.0 106 106
+ 0.50875 0 1 cbr 210 ------- 1 0.0 2.0 109 109
- 0.50875 0 1 cbr 210 ------- 1 0.0 2.0 109 109
r 0.51168 1 2 cbr 210 ------- 1 0.0 2.0 104 104
r 0.51209 0 1 cbr 210 ------- 1 0.0 2.0 107 107
+ 0.51209 1 2 cbr 210 ------- 1 0.0 2.0 107 107
- 0.51209 1 2 cbr 210 ------- 1 0.0 2.0 107 107
+ 0.5125 0 1 cbr 210 ------- 1 0.0 2.0 110 110
- 0.5125 0 1 cbr 210 ------- 1 0.0 2.0 110 110
r 0.51543 1 2 cbr 210 ------- 1 0.0 2.0 105 105
r 0.51584 0 1 cbr 210 ------- 1 0.0 2.0 108 108
+ 0.51584 1 2 cbr 210 ------- 1 0.0 2.0 108 108
- 0.51584 1 2 cbr 210 ------- 1 0.0 2.0 108 108
+ 0.51625 0 1 cbr 210 ------- 1 0.0 2.0 111 111