+ 0.2 0 2 tcp 40 ------- 1 0.0 1.0 0 0
- 0.2 0 2 tcp 40 ------- 1 0.0 1.0 0 0
r 0.21016 0 2 tcp 40 ------- 1 0.0 1.0 0 0
+ 0.21016 2 1 tcp 40 ------- 1 0.0 1.0 0 0
- 0.21016 2 1 tcp 40 ------- 1 0.0 1.0 0 0
r 0.22032 2 1 tcp 40 ------- 1 0.0 1.0 0 0
+ 0.22032 1 2 ack 40 ------- 1 1.0 0.0 0 1
- 0.22032 1 2 ack 40 ------- 1 1.0 0.0 0 1
r 0.23048 1 2 ack 40 ------- 1 1.0 0.0 0 1
+ 0.23048 2 0 ack 40 ------- 1 1.0 0.0 0 1
- 0.23048 2 0 ack 40 ------- 1 1.0 0.0 0 1
r 0.24064 2 0 ack 40 ------- 1 1.0 0.0 0 1
+ 0.24064 0 2 tcp 1040 ------- 1 0.0 1.0 1 2
- 0.24064 0 2 tcp 1040 ------- 1 0.0 1.0 1 2
+ 0.24064 0 2 tcp 1040 ------- 1 0.0 1.0 2 3
- 0.2448 0 2 tcp 1040 ------- 1 0.0 1.0 2 3
r 0.2548 0 2 tcp 1040 ------- 1 0.0 1.0 1 2
+ 0.2548 2 1 tcp 1040 ------- 1 0.0 1.0 1 2
- 0.2548 2 1 tcp 1040 ------- 1 0.0 1.0 1 2
r 0.25896 0 2 tcp 1040 ------- 1 0.0 1.0 2 3
+ 0.25896 2 1 tcp 1040 ------- 1 0.0 1.0 2 3
- 0.25896 2 1 tcp 1040 ------- 1 0.0 1.0 2 3
r 0.26896 2 1 tcp 1040 ------- 1 0.0 1.0 1 2
+ 0.26896 1 2 ack 40 ------- 1 1.0 0.0 1 4
- 0.26896 1 2 ack 40 ------- 1 1.0 0.0 1 4
r 0.27312 2 1 tcp 1040 ------- 1 0.0 1.0 2 3
+ 0.27312 1 2 ack 40 ------- 1 1.0 0.0 2 5
- 0.27312 1 2 ack 40 ------- 1 1.0 0.0 2 5
r 0.27912 1 2 ack 40 ------- 1 1.0 0.0 1 4
+ 0.27912 2 0 ack 40 ------- 1 1.0 0.0 1 4
- 0.27912 2 0 ack 40 ------- 1 1.0 0.0 1 4
r 0.28328 1 2 ack 40 ------- 1 1.0 0.0 2 5
+ 0.28328 2 0 ack 40 ------- 1 1.0 0.0 2 5
- 0.28328 2 0 ack 40 ------- 1 1.0 0.0 2 5
r 0.28928 2 0 ack 40 ------- 1 1.0 0.0 1 4
+ 0.28928 0 2 tcp 1040 ------- 1 0.0 1.0 3 6
- 0.28928 0 2 tcp 1040 ------- 1 0.0 1.0 3 6
+ 0.28928 0 2 tcp 1040 ------- 1 0.0 1.0 4 7
r 0.29344 2 0 ack 40 ------- 1 1.0 0.0 2 5
+ 0.29344 0 2 tcp 1040 ------- 1 0.0 1.0 5 8
+ 0.29344 0 2 tcp 1040 ------- 1 0.0 1.0 6 9
- 0.29344 0 2 tcp 1040 ------- 1 0.0 1.0 4 7
- 0.2976 0 2 tcp 1040 ------- 1 0.0 1.0 5 8
- 0.30176 0 2 tcp 1040 ------- 1 0.0 1.0 6 9
r 0.30344 0 2 tcp 1040 ------- 1 0.0 1.0 3 6
+ 0.30344 2 1 tcp 1040 ------- 1 0.0 1.0 3 6
- 0.30344 2 1 tcp 1040 ------- 1 0.0 1.0 3 6
r 0.3076 0 2 tcp 1040 ------- 1 0.0 1.0 4 7
+ 0.3076 2 1 tcp 1040 ------- 1 0.0 1.0 4 7
- 0.3076 2 1 tcp 1040 ------- 1 0.0 1.0 4 7
r 0.31176 0 2 tcp 1040 ------- 1 0.0 1.0 5 8
+ 0.31176 2 1 tcp 1040 ------- 1 0.0 1.0 5 8
- 0.31176 2 1 tcp 1040 ------- 1 0.0 1.0 5 8
r 0.31592 0 2 tcp 1040 ------- 1 0.0 1.0 6 9
+ 0.31592 2 1 tcp 1040 ------- 1 0.0 1.0 6 9
- 0.31592 2 1 tcp 1040 ------- 1 0.0 1.0 6 9
r 0.3176 2 1 tcp 1040 ------- 1 0.0 1.0 3 6
+ 0.3176 1 2 ack 40 ------- 1 1.0 0.0 3 10
- 0.3176 1 2 ack 40 ------- 1 1.0 0.0 3 10
r 0.32176 2 1 tcp 1040 ------- 1 0.0 1.0 4 7
+ 0.32176 1 2 ack 40 ------- 1 1.0 0.0 4 11
- 0.32176 1 2 ack 40 ------- 1 1.0 0.0 4 11
r 0.32592 2 1 tcp 1040 ------- 1 0.0 1.0 5 8
+ 0.32592 1 2 ack 40 ------- 1 1.0 0.0 5 12
- 0.32592 1 2 ack 40 ------- 1 1.0 0.0 5 12
r 0.32776 1 2 ack 40 ------- 1 1.0 0.0 3 10
+ 0.32776 2 0 ack 40 ------- 1 1.0 0.0 3 10
- 0.32776 2 0 ack 40 ------- 1 1.0 0.0 3 10
r 0.33008 2 1 tcp 1040 ------- 1 0.0 1.0 6 9
+ 0.33008 1 2 ack 40 ------- 1 1.0 0.0 6 13
- 0.33008 1 2 ack 40 ------- 1 1.0 0.0 6 13
r 0.33192 1 2 ack 40 ------- 1 1.0 0.0 4 11
+ 0.33192 2 0 ack 40 ------- 1 1.0 0.0 4 11
- 0.33192 2 0 ack 40 ------- 1 1.0 0.0 4 11
r 0.33608 1 2 ack 40 ------- 1 1.0 0.0 5 12
+ 0.33608 2 0 ack 40 ------- 1 1.0 0.0 5 12
- 0.33608 2 0 ack 40 ------- 1 1.0 0.0 5 12
r 0.33792 2 0 ack 40 ------- 1 1.0 0.0 3 10
+ 0.33792 0 2 tcp 1040 ------- 1 0.0 1.0 7 14
- 0.33792 0 2 tcp 1040 ------- 1 0.0 1.0 7 14
+ 0.33792 0 2 tcp 1040 ------- 1 0.0 1.0 8 15
r 0.34024 1 2 ack 40 ------- 1 1.0 0.0 6 13
+ 0.34024 2 0 ack 40 ------- 1 1.0 0.0 6 13
- 0.34024 2 0 ack 40 ------- 1 1.0 0.0 6 13
r 0.34208 2 0 ack 40 ------- 1 1.0 0.0 4 11
+ 0.34208 0 2 tcp 1040 ------- 1 0.0 1.0 9 16
+ 0.34208 0 2 tcp 1040 ------- 1 0.0 1.0 10 17
- 0.34208 0 2 tcp 1040 ------- 1 0.0 1.0 8 15
r 0.34624 2 0 ack 40 ------- 1 1.0 0.0 5 12
+ 0.34624 0 2 tcp 1040 ------- 1 0.0 1.0 11 18
+ 0.34624 0 2 tcp 1040 ------- 1 0.0 1.0 12 19
- 0.34624 0 2 tcp 1040 ------- 1 0.0 1.0 9 16
r 0.3504 2 0 ack 40 ------- 1 1.0 0.0 6 13
+ 0.3504 0 2 tcp 1040 ------- 1 0.0 1.0 13 20
+ 0.3504 0 2 tcp 1040 ------- 1 0.0 1.0 14 21
- 0.3504 0 2 tcp 1040 ------- 1 0.0 1.0 10 17
r 0.35208 0 2 tcp 1040 ------- 1 0.0 1.0 7 14
+ 0.35208 2 1 tcp 1040 ------- 1 0.0 1.0 7 14
- 0.35208 2 1 tcp 1040 ------- 1 0.0 1.0 7 14
- 0.35456 0 2 tcp 1040 ------- 1 0.0 1.0 11 18
r 0.35624 0 2 tcp 1040 ------- 1 0.0 1.0 8 15
+ 0.35624 2 1 tcp 1040 ------- 1 0.0 1.0 8 15
- 0.35624 2 1 tcp 1040 ------- 1 0.0 1.0 8 15
- 0.35872 0 2 tcp 1040 ------- 1 0.0 1.0 12 19
r 0.3604 0 2 tcp 1040 ------- 1 0.0 1.0 9 16
+ 0.3604 2 1 tcp 1040 ------- 1 0.0 1.0 9 16
- 0.3604 2 1 tcp 1040 ------- 1 0.0 1.0 9 16
- 0.36288 0 2 tcp 1040 ------- 1 0.0 1.0 13 20
r 0.36456 0 2 tcp 1040 ------- 1 0.0 1.0 10 17
+ 0.36456 2 1 tcp 1040 ------- 1 0.0 1.0 10 17
- 0.36456 2 1 tcp 1040 ------- 1 0.0 1.0 10 17
r 0.36624 2 1 tcp 1040 ------- 1 0.0 1.0 7 14
+ 0.36624 1 2 ack 40 ------- 1 1.0 0.0 7 22
- 0.36624 1 2 ack 40 ------- 1 1.0 0.0 7 22
- 0.36704 0 2 tcp 1040 ------- 1 0.0 1.0 14 21
r 0.36872 0 2 tcp 1040 ------- 1 0.0 1.0 11 18
+ 0.36872 2 1 tcp 1040 ------- 1 0.0 1.0 11 18
- 0.36872 2 1 tcp 1040 ------- 1 0.0 1.0 11 18
r 0.3704 2 1 tcp 1040 ------- 1 0.0 1.0 8 15
+ 0.3704 1 2 ack 40 ------- 1 1.0 0.0 8 23
- 0.3704 1 2 ack 40 ------- 1 1.0 0.0 8 23
r 0.37288 0 2 tcp 1040 ------- 1 0.0 1.0 12 19
+ 0.37288 2 1 tcp 1040 ------- 1 0.0 1.0 12 19
- 0.37288 2 1 tcp 1040 ------- 1 0.0 1.0 12 19
r 0.37456 2 1 tcp 1040 ------- 1 0.0 1.0 9 16
+ 0.37456 1 2 ack 40 ------- 1 1.0 0.0 9 24
- 0.37456 1 2 ack 40 ------- 1 1.0 0.0 9 24
r 0.3764 1 2 ack 40 ------- 1 1.0 0.0 7 22
+ 0.3764 2 0 ack 40 ------- 1 1.0 0.0 7 22
- 0.3764 2 0 ack 40 ------- 1 1.0 0.0 7 22
r 0.37704 0 2 tcp 1040 ------- 1 0.0 1.0 13 20
+ 0.37704 2 1 tcp 1040 ------- 1 0.0 1.0 13 20
- 0.37704 2 1 tcp 1040 ------- 1 0.0 1.0 13 20
r 0.37872 2 1 tcp 1040 ------- 1 0.0 1.0 10 17
+ 0.37872 1 2 ack 40 ------- 1 1.0 0.0 10 25
- 0.37872 1 2 ack 40 ------- 1 1.0 0.0 10 25
r 0.38056 1 2 ack 40 ------- 1 1.0 0.0 8 23
+ 0.38056 2 0 ack 40 ------- 1 1.0 0.0 8 23
- 0.38056 2 0 ack 40 ------- 1 1.0 0.0 8 23
r 0.3812 0 2 tcp 1040 ------- 1 0.0 1.0 14 21
+ 0.3812 2 1 tcp 1040 ------- 1 0.0 1.0 14 21
- 0.3812 2 1 tcp 1040 ------- 1 0.0 1.0 14 21
r 0.38288 2 1 tcp 1040 ------- 1 0.0 1.0 11 18
+ 0.38288 1 2 ack 40 ------- 1 1.0 0.0 11 26
- 0.38288 1 2 ack 40 ------- 1 1.0 0.0 11 26
r 0.38472 1 2 ack 40 ------- 1 1.0 0.0 9 24
+ 0.38472 2 0 ack 40 ------- 1 1.0 0.0 9 24
- 0.38472 2 0 ack 40 ------- 1 1.0 0.0 9 24
r 0.38656 2 0 ack 40 ------- 1 1.0 0.0 7 22
+ 0.38656 0 2 tcp 1040 ------- 1 0.0 1.0 15 27
- 0.38656 0 2 tcp 1040 ------- 1 0.0 1.0 15 27
+ 0.38656 0 2 tcp 1040 ------- 1 0.0 1.0 16 28
r 0.38704 2 1 tcp 1040 ------- 1 0.0 1.0 12 19
+ 0.38704 1 2 ack 40 ------- 1 1.0 0.0 12 29
- 0.38704 1 2 ack 40 ------- 1 1.0 0.0 12 29
r 0.38888 1 2 ack 40 ------- 1 1.0 0.0 10 25
+ 0.38888 2 0 ack 40 ------- 1 1.0 0.0 10 25
- 0.38888 2 0 ack 40 ------- 1 1.0 0.0 10 25
r 0.39072 2 0 ack 40 ------- 1 1.0 0.0 8 23
+ 0.39072 0 2 tcp 1040 ------- 1 0.0 1.0 17 30
+ 0.39072 0 2 tcp 1040 ------- 1 0.0 1.0 18 31
- 0.39072 0 2 tcp 1040 ------- 1 0.0 1.0 16 28
r 0.3912 2 1 tcp 1040 ------- 1 0.0 1.0 13 20
+ 0.3912 1 2 ack 40 ------- 1 1.0 0.0 13 32
- 0.3912 1 2 ack 40 ------- 1 1.0 0.0 13 32
r 0.39304 1 2 ack 40 ------- 1 1.0 0.0 11 26
+ 0.39304 2 0 ack 40 ------- 1 1.0 0.0 11 26
- 0.39304 2 0 ack 40 ------- 1 1.0 0.0 11 26
r 0.39488 2 0 ack 40 ------- 1 1.0 0.0 9 24
+ 0.39488 0 2 tcp 1040 ------- 1 0.0 1.0 19 33
+ 0.39488 0 2 tcp 1040 ------- 1 0.0 1.0 20 34
- 0.39488 0 2 tcp 1040 ------- 1 0.0 1.0 17 30
r 0.39536 2 1 tcp 1040 ------- 1 0.0 1.0 14 21
+ 0.39536 1 2 ack 40 ------- 1 1.0 0.0 14 35
- 0.39536 1 2 ack 40 ------- 1 1.0 0.0 14 35
r 0.3972 1 2 ack 40 ------- 1 1.0 0.0 12 29
+ 0.3972 2 0 ack 40 ------- 1 1.0 0.0 12 29
- 0.3972 2 0 ack 40 ------- 1 1.0 0.0 12 29
r 0.39904 2 0 ack 40 ------- 1 1.0 0.0 10 25
+ 0.39904 0 2 tcp 1040 ------- 1 0.0 1.0 21 36
+ 0.39904 0 2 tcp 1040 ------- 1 0.0 1.0 22 37
- 0.39904 0 2 tcp 1040 ------- 1 0.0 1.0 18 31
r 0.40072 0 2 tcp 1040 ------- 1 0.0 1.0 15 27
+ 0.40072 2 1 tcp 1040 ------- 1 0.0 1.0 15 27
- 0.40072 2 1 tcp 1040 ------- 1 0.0 1.0 15 27
r 0.40136 1 2 ack 40 ------- 1 1.0 0.0 13 32
+ 0.40136 2 0 ack 40 ------- 1 1.0 0.0 13 32
- 0.40136 2 0 ack 40 ------- 1 1.0 0.0 13 32
r 0.4032 2 0 ack 40 ------- 1 1.0 0.0 11 26
+ 0.4032 0 2 tcp 1040 ------- 1 0.0 1.0 23 38
+ 0.4032 0 2 tcp 1040 ------- 1 0.0 1.0 24 39
- 0.4032 0 2 tcp 1040 ------- 1 0.0 1.0 19 33
r 0.40488 0 2 tcp 1040 ------- 1 0.0 1.0 16 28
+ 0.40488 2 1 tcp 1040 ------- 1 0.0 1.0 16 28
- 0.40488 2 1 tcp 1040 ------- 1 0.0 1.0 16 28
r 0.40552 1 2 ack 40 ------- 1 1.0 0.0 14 35
+ 0.40552 2 0 ack 40 ------- 1 1.0 0.0 14 35
- 0.40552 2 0 ack 40 ------- 1 1.0 0.0 14 35
r 0.40736 2 0 ack 40 ------- 1 1.0 0.0 12 29
+ 0.40736 0 2 tcp 1040 ------- 1 0.0 1.0 25 40
+ 0.40736 0 2 tcp 1040 ------- 1 0.0 1.0 26 41
- 0.40736 0 2 tcp 1040 ------- 1 0.0 1.0 20 34
r 0.40904 0 2 tcp 1040 ------- 1 0.0 1.0 17 30
+ 0.40904 2 1 tcp 1040 ------- 1 0.0 1.0 17 30
- 0.40904 2 1 tcp 1040 ------- 1 0.0 1.0 17 30
r 0.41152 2 0 ack 40 ------- 1 1.0 0.0 13 32
+ 0.41152 0 2 tcp 1040 ------- 1 0.0 1.0 27 42
+ 0.41152 0 2 tcp 1040 ------- 1 0.0 1.0 28 43
- 0.41152 0 2 tcp 1040 ------- 1 0.0 1.0 21 36
r 0.4132 0 2 tcp 1040 ------- 1 0.0 1.0 18 31
+ 0.4132 2 1 tcp 1040 ------- 1 0.0 1.0 18 31
- 0.4132 2 1 tcp 1040 ------- 1 0.0 1.0 18 31
r 0.41488 2 1 tcp 1040 ------- 1 0.0 1.0 15 27
+ 0.41488 1 2 ack 40 ------- 1 1.0 0.0 15 44
- 0.41488 1 2 ack 40 ------- 1 1.0 0.0 15 44
r 0.41568 2 0 ack 40 ------- 1 1.0 0.0 14 35
+ 0.41568 0 2 tcp 1040 ------- 1 0.0 1.0 29 45
+ 0.41568 0 2 tcp 1040 ------- 1 0.0 1.0 30 46
- 0.41568 0 2 tcp 1040 ------- 1 0.0 1.0 22 37
r 0.41736 0 2 tcp 1040 ------- 1 0.0 1.0 19 33
+ 0.41736 2 1 tcp 1040 ------- 1 0.0 1.0 19 33
- 0.41736 2 1 tcp 1040 ------- 1 0.0 1.0 19 33
r 0.41904 2 1 tcp 1040 ------- 1 0.0 1.0 16 28
+ 0.41904 1 2 ack 40 ------- 1 1.0 0.0 16 47
- 0.41904 1 2 ack 40 ------- 1 1.0 0.0 16 47
- 0.41984 0 2 tcp 1040 ------- 1 0.0 1.0 23 38
r 0.42152 0 2 tcp 1040 ------- 1 0.0 1.0 20 34
+ 0.42152 2 1 tcp 1040 ------- 1 0.0 1.0 20 34
- 0.42152 2 1 tcp 1040 ------- 1 0.0 1.0 20 34
r 0.4232 2 1 tcp 1040 ------- 1 0.0 1.0 17 30
+ 0.4232 1 2 ack 40 ------- 1 1.0 0.0 17 48
- 0.4232 1 2 ack 40 ------- 1 1.0 0.0 17 48
- 0.424 0 2 tcp 1040 ------- 1 0.0 1.0 24 39
r 0.42504 1 2 ack 40 ------- 1 1.0 0.0 15 44
+ 0.42504 2 0 ack 40 ------- 1 1.0 0.0 15 44
- 0.42504 2 0 ack 40 ------- 1 1.0 0.0 15 44
r 0.42568 0 2 tcp 1040 ------- 1 0.0 1.0 21 36
+ 0.42568 2 1 tcp 1040 ------- 1 0.0 1.0 21 36
- 0.42568 2 1 tcp 1040 ------- 1 0.0 1.0 21 36
r 0.42736 2 1 tcp 1040 ------- 1 0.0 1.0 18 31
+ 0.42736 1 2 ack 40 ------- 1 1.0 0.0 18 49
- 0.42736 1 2 ack 40 ------- 1 1.0 0.0 18 49
- 0.42816 0 2 tcp 1040 ------- 1 0.0 1.0 25 40
r 0.4292 1 2 ack 40 ------- 1 1.0 0.0 16 47
+ 0.4292 2 0 ack 40 ------- 1 1.0 0.0 16 47
- 0.4292 2 0 ack 40 ------- 1 1.0 0.0 16 47
r 0.42984 0 2 tcp 1040 ------- 1 0.0 1.0 22 37
+ 0.42984 2 1 tcp 1040 ------- 1 0.0 1.0 22 37
- 0.42984 2 1 tcp 1040 ------- 1 0.0 1.0 22 37
r 0.43152 2 1 tcp 1040 ------- 1 0.0 1.0 19 33
+ 0.43152 1 2 ack 40 ------- 1 1.0 0.0 19 50
- 0.43152 1 2 ack 40 ------- 1 1.0 0.0 19 50
- 0.43232 0 2 tcp 1040 ------- 1 0.0 1.0 26 41
r 0.43336 1 2 ack 40 ------- 1 1.0 0.0 17 48
+ 0.43336 2 0 ack 40 ------- 1 1.0 0.0 17 48
- 0.43336 2 0 ack 40 ------- 1 1.0 0.0 17 48
r 0.434 0 2 tcp 1040 ------- 1 0.0 1.0 23 38
+ 0.434 2 1 tcp 1040 ------- 1 0.0 1.0 23 38
- 0.434 2 1 tcp 1040 ------- 1 0.0 1.0 23 38
r 0.4352 2 0 ack 40 ------- 1 1.0 0.0 15 44
+ 0.4352 0 2 tcp 1040 ------- 1 0.0 1.0 31 51
+ 0.4352 0 2 tcp 1040 ------- 1 0.0 1.0 32 52
r 0.43568 2 1 tcp 1040 ------- 1 0.0 1.0 20 34
+ 0.43568 1 2 ack 40 ------- 1 1.0 0.0 20 53
- 0.43568 1 2 ack 40 ------- 1 1.0 0.0 20 53
- 0.43648 0 2 tcp 1040 ------- 1 0.0 1.0 27 42
r 0.43752 1 2 ack 40 ------- 1 1.0 0.0 18 49
+ 0.43752 2 0 ack 40 ------- 1 1.0 0.0 18 49
- 0.43752 2 0 ack 40 ------- 1 1.0 0.0 18 49
r 0.43816 0 2 tcp 1040 ------- 1 0.0 1.0 24 39
+ 0.43816 2 1 tcp 1040 ------- 1 0.0 1.0 24 39
- 0.43816 2 1 tcp 1040 ------- 1 0.0 1.0 24 39
r 0.43936 2 0 ack 40 ------- 1 1.0 0.0 16 47
+ 0.43936 0 2 tcp 1040 ------- 1 0.0 1.0 33 54
+ 0.43936 0 2 tcp 1040 ------- 1 0.0 1.0 34 55
r 0.43984 2 1 tcp 1040 ------- 1 0.0 1.0 21 36
+ 0.43984 1 2 ack 40 ------- 1 1.0 0.0 21 56
- 0.43984 1 2 ack 40 ------- 1 1.0 0.0 21 56
- 0.44064 0 2 tcp 1040 ------- 1 0.0 1.0 28 43
r 0.44168 1 2 ack 40 ------- 1 1.0 0.0 19 50
+ 0.44168 2 0 ack 40 ------- 1 1.0 0.0 19 50
- 0.44168 2 0 ack 40 ------- 1 1.0 0.0 19 50
r 0.44232 0 2 tcp 1040 ------- 1 0.0 1.0 25 40
+ 0.44232 2 1 tcp 1040 ------- 1 0.0 1.0 25 40
- 0.44232 2 1 tcp 1040 ------- 1 0.0 1.0 25 40
r 0.44352 2 0 ack 40 ------- 1 1.0 0.0 17 48
+ 0.44352 0 2 tcp 1040 ------- 1 0.0 1.0 35 57
+ 0.44352 0 2 tcp 1040 ------- 1 0.0 1.0 36 58
r 0.444 2 1 tcp 1040 ------- 1 0.0 1.0 22 37
+ 0.444 1 2 ack 40 ------- 1 1.0 0.0 22 59
- 0.444 1 2 ack 40 ------- 1 1.0 0.0 22 59
- 0.4448 0 2 tcp 1040 ------- 1 0.0 1.0 29 45
r 0.44584 1 2 ack 40 ------- 1 1.0 0.0 20 53
+ 0.44584 2 0 ack 40 ------- 1 1.0 0.0 20 53
- 0.44584 2 0 ack 40 ------- 1 1.0 0.0 20 53
r 0.44648 0 2 tcp 1040 ------- 1 0.0 1.0 26 41
+ 0.44648 2 1 tcp 1040 ------- 1 0.0 1.0 26 41
- 0.44648 2 1 tcp 1040 ------- 1 0.0 1.0 26 41
r 0.44768 2 0 ack 40 ------- 1 1.0 0.0 18 49
+ 0.44768 0 2 tcp 1040 ------- 1 0.0 1.0 37 60
+ 0.44768 0 2 tcp 1040 ------- 1 0.0 1.0 38 61
r 0.44816 2 1 tcp 1040 ------- 1 0.0 1.0 23 38
+ 0.44816 1 2 ack 40 ------- 1 1.0 0.0 23 62
- 0.44816 1 2 ack 40 ------- 1 1.0 0.0 23 62
- 0.44896 0 2 tcp 1040 ------- 1 0.0 1.0 30 46
r 0.45 1 2 ack 40 ------- 1 1.0 0.0 21 56
+ 0.45 2 0 ack 40 ------- 1 1.0 0.0 21 56
- 0.45 2 0 ack 40 ------- 1 1.0 0.0 21 56
r 0.45064 0 2 tcp 1040 ------- 1 0.0 1.0 27 42
+ 0.45064 2 1 tcp 1040 ------- 1 0.0 1.0 27 42
- 0.45064 2 1 tcp 1040 ------- 1 0.0 1.0 27 42
r 0.45184 2 0 ack 40 ------- 1 1.0 0.0 19 50
+ 0.45184 0 2 tcp 1040 ------- 1 0.0 1.0 39 63
r 0.45232 2 1 tcp 1040 ------- 1 0.0 1.0 24 39
+ 0.45232 1 2 ack 40 ------- 1 1.0 0.0 24 64
- 0.45232 1 2 ack 40 ------- 1 1.0 0.0 24 64
- 0.45312 0 2 tcp 1040 ------- 1 0.0 1.0 31 51
r 0.45416 1 2 ack 40 ------- 1 1.0 0.0 22 59
+ 0.45416 2 0 ack 40 ------- 1 1.0 0.0 22 59
- 0.45416 2 0 ack 40 ------- 1 1.0 0.0 22 59
r 0.4548 0 2 tcp 1040 ------- 1 0.0 1.0 28 43
+ 0.4548 2 1 tcp 1040 ------- 1 0.0 1.0 28 43
- 0.4548 2 1 tcp 1040 ------- 1 0.0 1.0 28 43
r 0.456 2 0 ack 40 ------- 1 1.0 0.0 20 53
+ 0.456 0 2 tcp 1040 ------- 1 0.0 1.0 40 65
r 0.45648 2 1 tcp 1040 ------- 1 0.0 1.0 25 40
+ 0.45648 1 2 ack 40 ------- 1 1.0 0.0 25 66
- 0.45648 1 2 ack 40 ------- 1 1.0 0.0 25 66
- 0.45728 0 2 tcp 1040 ------- 1 0.0 1.0 32 52
r 0.45832 1 2 ack 40 ------- 1 1.0 0.0 23 62
+ 0.45832 2 0 ack 40 ------- 1 1.0 0.0 23 62
- 0.45832 2 0 ack 40 ------- 1 1.0 0.0 23 62
r 0.45896 0 2 tcp 1040 ------- 1 0.0 1.0 29 45
+ 0.45896 2 1 tcp 1040 ------- 1 0.0 1.0 29 45
- 0.45896 2 1 tcp 1040 ------- 1 0.0 1.0 29 45
r 0.46016 2 0 ack 40 ------- 1 1.0 0.0 21 56
+ 0.46016 0 2 tcp 1040 ------- 1 0.0 1.0 41 67
r 0.46064 2 1 tcp 1040 ------- 1 0.0 1.0 26 41
+ 0.46064 1 2 ack 40 ------- 1 1.0 0.0 26 68
- 0.46064 1 2 ack 40 ------- 1 1.0 0.0 26 68
- 0.46144 0 2 tcp 1040 ------- 1 0.0 1.0 33 54
r 0.46248 1 2 ack 40 ------- 1 1.0 0.0 24 64
+ 0.46248 2 0 ack 40 ------- 1 1.0 0.0 24 64
- 0.46248 2 0 ack 40 ------- 1 1.0 0.0 24 64
r 0.46312 0 2 tcp 1040 ------- 1 0.0 1.0 30 46
+ 0.46312 2 1 tcp 1040 ------- 1 0.0 1.0 30 46
- 0.46312 2 1 tcp 1040 ------- 1 0.0 1.0 30 46
r 0.46432 2 0 ack 40 ------- 1 1.0 0.0 22 59
+ 0.46432 0 2 tcp 1040 ------- 1 0.0 1.0 42 69
r 0.4648 2 1 tcp 1040 ------- 1 0.0 1.0 27 42
+ 0.4648 1 2 ack 40 ------- 1 1.0 0.0 27 70
- 0.4648 1 2 ack 40 ------- 1 1.0 0.0 27 70
- 0.4656 0 2 tcp 1040 ------- 1 0.0 1.0 34 55
r 0.46664 1 2 ack 40 ------- 1 1.0 0.0 25 66
+ 0.46664 2 0 ack 40 ------- 1 1.0 0.0 25 66
- 0.46664 2 0 ack 40 ------- 1 1.0 0.0 25 66
r 0.46728 0 2 tcp 1040 ------- 1 0.0 1.0 31 51
+ 0.46728 2 1 tcp 1040 ------- 1 0.0 1.0 31 51
- 0.46728 2 1 tcp 1040 ------- 1 0.0 1.0 31 51
r 0.46848 2 0 ack 40 ------- 1 1.0 0.0 23 62
+ 0.46848 0 2 tcp 1040 ------- 1 0.0 1.0 43 71
r 0.46896 2 1 tcp 1040 ------- 1 0.0 1.0 28 43
+ 0.46896 1 2 ack 40 ------- 1 1.0 0.0 28 72
- 0.46896 1 2 ack 40 ------- 1 1.0 0.0 28 72
- 0.46976 0 2 tcp 1040 ------- 1 0.0 1.0 35 57
r 0.4708 1 2 ack 40 ------- 1 1.0 0.0 26 68
+ 0.4708 2 0 ack 40 ------- 1 1.0 0.0 26 68
- 0.4708 2 0 ack 40 ------- 1 1.0 0.0 26 68
r 0.47144 0 2 tcp 1040 ------- 1 0.0 1.0 32 52
+ 0.47144 2 1 tcp 1040 ------- 1 0.0 1.0 32 52
- 0.47144 2 1 tcp 1040 ------- 1 0.0 1.0 32 52
r 0.47264 2 0 ack 40 ------- 1 1.0 0.0 24 64
+ 0.47264 0 2 tcp 1040 ------- 1 0.0 1.0 44 73
r 0.47312 2 1 tcp 1040 ------- 1 0.0 1.0 29 45
+ 0.47312 1 2 ack 40 ------- 1 1.0 0.0 29 74
- 0.47312 1 2 ack 40 ------- 1 1.0 0.0 29 74
- 0.47392 0 2 tcp 1040 ------- 1 0.0 1.0 36 58
r 0.47496 1 2 ack 40 ------- 1 1.0 0.0 27 70
+ 0.47496 2 0 ack 40 ------- 1 1.0 0.0 27 70
- 0.47496 2 0 ack 40 ------- 1 1.0 0.0 27 70
r 0.4756 0 2 tcp 1040 ------- 1 0.0 1.0 33 54
+ 0.4756 2 1 tcp 1040 ------- 1 0.0 1.0 33 54
- 0.4756 2 1 tcp 1040 ------- 1 0.0 1.0 33 54
r 0.4768 2 0 ack 40 ------- 1 1.0 0.0 25 66
+ 0.4768 0 2 tcp 1040 ------- 1 0.0 1.0 45 75
r 0.47728 2 1 tcp 1040 ------- 1 0.0 1.0 30 46
+ 0.47728 1 2 ack 40 ------- 1 1.0 0.0 30 76
- 0.47728 1 2 ack 40 ------- 1 1.0 0.0 30 76
- 0.47808 0 2 tcp 1040 ------- 1 0.0 1.0 37 60
r 0.47912 1 2 ack 40 ------- 1 1.0 0.0 28 72
+ 0.47912 2 0 ack 40 ------- 1 1.0 0.0 28 72
- 0.47912 2 0 ack 40 ------- 1 1.0 0.0 28 72
r 0.47976 0 2 tcp 1040 ------- 1 0.0 1.0 34 55
+ 0.47976 2 1 tcp 1040 ------- 1 0.0 1.0 34 55
- 0.47976 2 1 tcp 1040 ------- 1 0.0 1.0 34 55
r 0.48096 2 0 ack 40 ------- 1 1.0 0.0 26 68
+ 0.48096 0 2 tcp 1040 ------- 1 0.0 1.0 46 77
r 0.48144 2 1 tcp 1040 ------- 1 0.0 1.0 31 51
+ 0.48144 1 2 ack 40 ------- 1 1.0 0.0 31 78
- 0.48144 1 2 ack 40 ------- 1 1.0 0.0 31 78
- 0.48224 0 2 tcp 1040 ------- 1 0.0 1.0 38 61
r 0.48328 1 2 ack 40 ------- 1 1.0 0.0 29 74
+ 0.48328 2 0 ack 40 ------- 1 1.0 0.0 29 74
- 0.48328 2 0 ack 40 ------- 1 1.0 0.0 29 74
r 0.48392 0 2 tcp 1040 ------- 1 0.0 1.0 35 57
+ 0.48392 2 1 tcp 1040 ------- 1 0.0 1.0 35 57
- 0.48392 2 1 tcp 1040 ------- 1 0.0 1.0 35 57
r 0.48512 2 0 ack 40 ------- 1 1.0 0.0 27 70
+ 0.48512 0 2 tcp 1040 ------- 1 0.0 1.0 47 79
r 0.4856 2 1 tcp 1040 ------- 1 0.0 1.0 32 52
+ 0.4856 1 2 ack 40 ------- 1 1.0 0.0 32 80
- 0.4856 1 2 ack 40 ------- 1 1.0 0.0 32 80
- 0.4864 0 2 tcp 1040 ------- 1 0.0 1.0 39 63
r 0.48744 1 2 ack 40 ------- 1 1.0 0.0 30 76
+ 0.48744 2 0 ack 40 ------- 1 1.0 0.0 30 76
- 0.48744 2 0 ack 40 ------- 1 1.0 0.0 30 76
r 0.48808 0 2 tcp 1040 ------- 1 0.0 1.0 36 58
+ 0.48808 2 1 tcp 1040 ------- 1 0.0 1.0 36 58
- 0.48808 2 1 tcp 1040 ------- 1 0.0 1.0 36 58
r 0.48928 2 0 ack 40 ------- 1 1.0 0.0 28 72
+ 0.48928 0 2 tcp 1040 ------- 1 0.0 1.0 48 81
r 0.48976 2 1 tcp 1040 ------- 1 0.0 1.0 33 54
+ 0.48976 1 2 ack 40 ------- 1 1.0 0.0 33 82
- 0.48976 1 2 ack 40 ------- 1 1.0 0.0 33 82
- 0.49056 0 2 tcp 1040 ------- 1 0.0 1.0 40 65
r 0.4916 1 2 ack 40 ------- 1 1.0 0.0 31 78
+ 0.4916 2 0 ack 40 ------- 1 1.0 0.0 31 78
- 0.4916 2 0 ack 40 ------- 1 1.0 0.0 31 78
r 0.49224 0 2 tcp 1040 ------- 1 0.0 1.0 37 60
+ 0.49224 2 1 tcp 1040 ------- 1 0.0 1.0 37 60
- 0.49224 2 1 tcp 1040 ------- 1 0.0 1.0 37 60
r 0.49344 2 0 ack 40 ------- 1 1.0 0.0 29 74
+ 0.49344 0 2 tcp 1040 ------- 1 0.0 1.0 49 83
r 0.49392 2 1 tcp 1040 ------- 1 0.0 1.0 34 55
+ 0.49392 1 2 ack 40 ------- 1 1.0 0.0 34 84
- 0.49392 1 2 ack 40 ------- 1 1.0 0.0 34 84
- 0.49472 0 2 tcp 1040 ------- 1 0.0 1.0 41 67
r 0.49576 1 2 ack 40 ------- 1 1.0 0.0 32 80
+ 0.49576 2 0 ack 40 ------- 1 1.0 0.0 32 80
- 0.49576 2 0 ack 40 ------- 1 1.0 0.0 32 80
r 0.4964 0 2 tcp 1040 ------- 1 0.0 1.0 38 61
+ 0.4964 2 1 tcp 1040 ------- 1 0.0 1.0 38 61
- 0.4964 2 1 tcp 1040 ------- 1 0.0 1.0 38 61
r 0.4976 2 0 ack 40 ------- 1 1.0 0.0 30 76
+ 0.4976 0 2 tcp 1040 ------- 1 0.0 1.0 50 85
r 0.49808 2 1 tcp 1040 ------- 1 0.0 1.0 35 57
+ 0.49808 1 2 ack 40 ------- 1 1.0 0.0 35 86
- 0.49808 1 2 ack 40 ------- 1 1.0 0.0 35 86
- 0.49888 0 2 tcp 1040 ------- 1 0.0 1.0 42 69
r 0.49992 1 2 ack 40 ------- 1 1.0 0.0 33 82
+ 0.49992 2 0 ack 40 ------- 1 1.0 0.0 33 82
- 0.49992 2 0 ack 40 ------- 1 1.0 0.0 33 82
r 0.50056 0 2 tcp 1040 ------- 1 0.0 1.0 39 63
+ 0.50056 2 1 tcp 1040 ------- 1 0.0 1.0 39 63
- 0.50056 2 1 tcp 1040 ------- 1 0.0 1.0 39 63
r 0.50176 2 0 ack 40 ------- 1 1.0 0.0 31 78
+ 0.50176 0 2 tcp 1040 ------- 1 0.0 1.0 51 87
r 0.50224 2 1 tcp 1040 ------- 1 0.0 1.0 36 58
+ 0.50224 1 2 ack 40 ------- 1 1.0 0.0 36 88
- 0.50224 1 2 ack 40 ------- 1 1.0 0.0 36 88
- 0.50304 0 2 tcp 1040 ------- 1 0.0 1.0 43 71
r 0.50408 1 2 ack 40 ------- 1 1.0 0.0 34 84
+ 0.50408 2 0 ack 40 ------- 1 1.0 0.0 34 84
- 0.50408 2 0 ack 40 ------- 1 1.0 0.0 34 84
r 0.50472 0 2 tcp 1040 ------- 1 0.0 1.0 40 65
+ 0.50472 2 1 tcp 1040 ------- 1 0.0 1.0 40 65
- 0.50472 2 1 tcp 1040 ------- 1 0.0 1.0 40 65
r 0.50592 2 0 ack 40 ------- 1 1.0 0.0 32 80
+ 0.50592 0 2 tcp 1040 ------- 1 0.0 1.0 52 89
r 0.5064 2 1 tcp 1040 ------- 1 0.0 1.0 37 60
+ 0.5064 1 2 ack 40 ------- 1 1.0 0.0 37 90
- 0.5064 1 2 ack 40 ------- 1 1.0 0.0 37 90
- 0.5072 0 2 tcp 1040 ------- 1 0.0 1.0 44 73
r 0.50824 1 2 ack 40 ------- 1 1.0 0.0 35 86
+ 0.50824 2 0 ack 40 ------- 1 1.0 0.0 35 86
- 0.50824 2 0 ack 40 ------- 1 1.0 0.0 35 86
r 0.50888 0 2 tcp 1040 ------- 1 0.0 1.0 41 67
+ 0.50888 2 1 tcp 1040 ------- 1 0.0 1.0 41 67
- 0.50888 2 1 tcp 1040 ------- 1 0.0 1.0 41 67
r 0.51008 2 0 ack 40 ------- 1 1.0 0.0 33 82
+ 0.51008 0 2 tcp 1040 ------- 1 0.0 1.0 53 91
r 0.51056 2 1 tcp 1040 ------- 1 0.0 1.0 38 61
+ 0.51056 1 2 ack 40 ------- 1 1.0 0.0 38 92
- 0.51056 1 2 ack 40 ------- 1 1.0 0.0 38 92
- 0.51136 0 2 tcp 1040 ------- 1 0.0 1.0 45 75
r 0.5124 1 2 ack 40 ------- 1 1.0 0.0 36 88
+ 0.5124 2 0 ack 40 ------- 1 1.0 0.0 36 88
- 0.5124 2 0 ack 40 ------- 1 1.0 0.0 36 88
r 0.51304 0 2 tcp 1040 ------- 1 0.0 1.0 42 69
+ 0.51304 2 1 tcp 1040 ------- 1 0.0 1.0 42 69
- 0.51304 2 1 tcp 1040 ------- 1 0.0 1.0 42 69
r 0.51424 2 0 ack 40 ------- 1 1.0 0.0 34 84
+ 0.51424 0 2 tcp 1040 ------- 1 0.0 1.0 54 93
r 0.51472 2 1 tcp 1040 ------- 1 0.0 1.0 39 63
+ 0.51472 1 2 ack 40 ------- 1 1.0 0.0 39 94
- 0.51472 1 2 ack 40 ------- 1 1.0 0.0 39 94
- 0.51552 0 2 tcp 1040 ------- 1 0.0 1.0 46 77
r 0.51656 1 2 ack 40 ------- 1 1.0 0.0 37 90
+ 0.51656 2 0 ack 40 ------- 1 1.0 0.0 37 90
- 0.51656 2 0 ack 40 ------- 1 1.0 0.0 37 90
r 0.5172 0 2 tcp 1040 ------- 1 0.0 1.0 43 71
+ 0.5172 2 1 tcp 1040 ------- 1 0.0 1.0 43 71
- 0.5172 2 1 tcp 1040 ------- 1 0.0 1.0 43 71
r 0.5184 2 0 ack 40 ------- 1 1.0 0.0 35 86
+ 0.5184 0 2 tcp 1040 ------- 1 0.0 1.0 55 95
r 0.51888 2 1 tcp 1040 ------- 1 0.0 1.0 40 65
+ 0.51888 1 2 ack 40 ------- 1 1.0 0.0 40 96
- 0.51888 1 2 ack 40 ------- 1 1.0 0.0 40 96
- 0.51968 0 2 tcp 1040 ------- 1 0.0 1.0 47 79
r 0.52072 1 2 ack 40 ------- 1 1.0 0.0 38 92
+ 0.52072 2 0 ack 40 ------- 1 1.0 0.0 38 92
- 0.52072 2 0 ack 40 ------- 1 1.0 0.0 38 92
r 0.52136 0 2 tcp 1040 ------- 1 0.0 1.0 44 73
+ 0.52136 2 1 tcp 1040 ------- 1 0.0 1.0 44 73
- 0.52136 2 1 tcp 1040 ------- 1 0.0 1.0 44 73
r 0.52256 2 0 ack 40 ------- 1 1.0 0.0 36 88
+ 0.52256 0 2 tcp 1040 ------- 1 0.0 1.0 56 97
r 0.52304 2 1 tcp 1040 ------- 1 0.0 1.0 41 67
+ 0.52304 1 2 ack 40 ------- 1 1.0 0.0 41 98
- 0.52304 1 2 ack 40 ------- 1 1.0 0.0 41 98
- 0.52384 0 2 tcp 1040 ------- 1 0.0 1.0 48 81
r 0.52488 1 2 ack 40 ------- 1 1.0 0.0 39 94
+ 0.52488 2 0 ack 40 ------- 1 1.0 0.0 39 94
- 0.52488 2 0 ack 40 ------- 1 1.0 0.0 39 94
r 0.52552 0 2 tcp 1040 ------- 1 0.0 1.0 45 75
+ 0.52552 2 1 tcp 1040 ------- 1 0.0 1.0 45 75
- 0.52552 2 1 tcp 1040 ------- 1 0.0 1.0 45 75
r 0.52672 2 0 ack 40 ------- 1 1.0 0.0 37 90
+ 0.52672 0 2 tcp 1040 ------- 1 0.0 1.0 57 99
r 0.5272 2 1 tcp 1040 ------- 1 0.0 1.0 42 69
+ 0.5272 1 2 ack 40 ------- 1 1.0 0.0 42 100
- 0.5272 1 2 ack 40 ------- 1 1.0 0.0 42 100
- 0.528 0 2 tcp 1040 ------- 1 0.0 1.0 49 83
r 0.52904 1 2 ack 40 ------- 1 1.0 0.0 40 96
+ 0.52904 2 0 ack 40 ------- 1 1.0 0.0 40 96
- 0.52904 2 0 ack 40 ------- 1 1.0 0.0 40 96
r 0.52968 0 2 tcp 1040 ------- 1 0.0 1.0 46 77
+ 0.52968 2 1 tcp 1040 ------- 1 0.0 1.0 46 77
- 0.52968 2 1 tcp 1040 ------- 1 0.0 1.0 46 77
r 0.53088 2 0 ack 40 ------- 1 1.0 0.0 38 92
+ 0.53088 0 2 tcp 1040 ------- 1 0.0 1.0 58 101
r 0.53136 2 1 tcp 1040 ------- 1 0.0 1.0 43 71
+ 0.53136 1 2 ack 40 ------- 1 1.0 0.0 43 102
- 0.53136 1 2 ack 40 ------- 1 1.0 0.0 43 102
- 0.53216 0 2 tcp 1040 ------- 1 0.0 1.0 50 85
r 0.5332 1 2 ack 40 ------- 1 1.0 0.0 41 98
+ 0.5332 2 0 ack 40 ------- 1 1.0 0.0 41 98
- 0.5332 2 0 ack 40 ------- 1 1.0 0.0 41 98
r 0.53384 0 2 tcp 1040 ------- 1 0.0 1.0 47 79
+ 0.53384 2 1 tcp 1040 ------- 1 0.0 1.0 47 79
- 0.53384 2 1 tcp 1040 ------- 1 0.0 1.0 47 79
r 0.53504 2 0 ack 40 ------- 1 1.0 0.0 39 94
+ 0.53504 0 2 tcp 1040 ------- 1 0.0 1.0 59 103
r 0.53552 2 1 tcp 1040 ------- 1 0.0 1.0 44 73
+ 0.53552 1 2 ack 40 ------- 1 1.0 0.0 44 104
- 0.53552 1 2 ack 40 ------- 1 1.0 0.0 44 104
- 0.53632 0 2 tcp 1040 ------- 1 0.0 1.0 51 87
r 0.53736 1 2 ack 40 ------- 1 1.0 0.0 42 100
+ 0.53736 2 0 ack 40 ------- 1 1.0 0.0 42 100
- 0.53736 2 0 ack 40 ------- 1 1.0 0.0 42 100
r 0.538 0 2 tcp 1040 ------- 1 0.0 1.0 48 81
+ 0.538 2 1 tcp 1040 ------- 1 0.0 1.0 48 81
- 0.538 2 1 tcp 1040 ------- 1 0.0 1.0 48 81
r 0.5392 2 0 ack 40 ------- 1 1.0 0.0 40 96
+ 0.5392 0 2 tcp 1040 ------- 1 0.0 1.0 60 105
r 0.53968 2 1 tcp 1040 ------- 1 0.0 1.0 45 75
+ 0.53968 1 2 ack 40 ------- 1 1.0 0.0 45 106
- 0.53968 1 2 ack 40 ------- 1 1.0 0.0 45 106
- 0.54048 0 2 tcp 1040 ------- 1 0.0 1.0 52 89
r 0.54152 1 2 ack 40 ------- 1 1.0 0.0 43 102
+ 0.54152 2 0 ack 40 ------- 1 1.0 0.0 43 102
- 0.54152 2 0 ack 40 ------- 1 1.0 0.0 43 102
r 0.54216 0 2 tcp 1040 ------- 1 0.0 1.0 49 83
+ 0.54216 2 1 tcp 1040 ------- 1 0.0 1.0 49 83
- 0.54216 2 1 tcp 1040 ------- 1 0.0 1.0 49 83
r 0.54336 2 0 ack 40 ------- 1 1.0 0.0 41 98
+ 0.54336 0 2 tcp 1040 ------- 1 0.0 1.0 61 107
r 0.54384 2 1 tcp 1040 ------- 1 0.0 1.0 46 77
+ 0.54384 1 2 ack 40 ------- 1 1.0 0.0 46 108
- 0.54384 1 2 ack 40 ------- 1 1.0 0.0 46 108
- 0.54464 0 2 tcp 1040 ------- 1 0.0 1.0 53 91
r 0.54568 1 2 ack 40 ------- 1 1.0 0.0 44 104
+ 0.54568 2 0 ack 40 ------- 1 1.0 0.0 44 104
- 0.54568 2 0 ack 40 ------- 1 1.0 0.0 44 104
r 0.54632 0 2 tcp 1040 ------- 1 0.0 1.0 50 85
+ 0.54632 2 1 tcp 1040 ------- 1 0.0 1.0 50 85
- 0.54632 2 1 tcp 1040 ------- 1 0.0 1.0 50 85
r 0.54752 2 0 ack 40 ------- 1 1.0 0.0 42 100
+ 0.54752 0 2 tcp 1040 ------- 1 0.0 1.0 62 109
r 0.548 2 1 tcp 1040 ------- 1 0.0 1.0 47 79
+ 0.548 1 2 ack 40 ------- 1 1.0 0.0 47 110
- 0.548 1 2 ack 40 ------- 1 1.0 0.0 47 110
- 0.5488 0 2 tcp 1040 ------- 1 0.0 1.0 54 93
r 0.54984 1 2 ack 40 ------- 1 1.0 0.0 45 106
+ 0.54984 2 0 ack 40 ------- 1 1.0 0.0 45 106
- 0.54984 2 0 ack 40 ------- 1 1.0 0.0 45 106
r 0.55048 0 2 tcp 1040 ------- 1 0.0 1.0 51 87
+ 0.55048 2 1 tcp 1040 ------- 1 0.0 1.0 51 87
- 0.55048 2 1 tcp 1040 ------- 1 0.0 1.0 51 87
r 0.55168 2 0 ack 40 ------- 1 1.0 0.0 43 102
+ 0.55168 0 2 tcp 1040 ------- 1 0.0 1.0 63 111
r 0.55216 2 1 tcp 1040 ------- 1 0.0 1.0 48 81
+ 0.55216 1 2 ack 40 ------- 1 1.0 0.0 48 112
- 0.55216 1 2 ack 40 ------- 1 1.0 0.0 48 112
- 0.55296 0 2 tcp 1040 ------- 1 0.0 1.0 55 95
r 0.554 1 2 ack 40 ------- 1 1.0 0.0 46 108
+ 0.554 2 0 ack 40 ------- 1 1.0 0.0 46 108
- 0.554 2 0 ack 40 ------- 1 1.0 0.0 46 108
r 0.55464 0 2 tcp 1040 ------- 1 0.0 1.0 52 89
+ 0.55464 2 1 tcp 1040 ------- 1 0.0 1.0 52 89
- 0.55464 2 1 tcp 1040 ------- 1 0.0 1.0 52 89
r 0.55584 2 0 ack 40 ------- 1 1.0 0.0 44 104
+ 0.55584 0 2 tcp 1040 ------- 1 0.0 1.0 64 113
r 0.55632 2 1 tcp 1040 ------- 1 0.0 1.0 49 83
+ 0.55632 1 2 ack 40 ------- 1 1.0 0.0 49 114
- 0.55632 1 2 ack 40 ------- 1 1.0 0.0 49 114
- 0.55712 0 2 tcp 1040 ------- 1 0.0 1.0 56 97
r 0.55816 1 2 ack 40 ------- 1 1.0 0.0 47 110
+ 0.55816 2 0 ack 40 ------- 1 1.0 0.0 47 110
- 0.55816 2 0 ack 40 ------- 1 1.0 0.0 47 110
r 0.5588 0 2 tcp 1040 ------- 1 0.0 1.0 53 91
+ 0.5588 2 1 tcp 1040 ------- 1 0.0 1.0 53 91
- 0.5588 2 1 tcp 1040 ------- 1 0.0 1.0 53 91
r 0.56 2 0 ack 40 ------- 1 1.0 0.0 45 106
+ 0.56 0 2 tcp 1040 ------- 1 0.0 1.0 65 115
r 0.56048 2 1 tcp 1040 ------- 1 0.0 1.0 50 85
+ 0.56048 1 2 ack 40 ------- 1 1.0 0.0 50 116
- 0.56048 1 2 ack 40 ------- 1 1.0 0.0 50 116
- 0.56128 0 2 tcp 1040 ------- 1 0.0 1.0 57 99
r 0.56232 1 2 ack 40 ------- 1 1.0 0.0 48 112
+ 0.56232 2 0 ack 40 ------- 1 1.0 0.0 48 112
- 0.56232 2 0 ack 40 ------- 1 1.0 0.0 48 112
r 0.56296 0 2 tcp 1040 ------- 1 0.0 1.0 54 93
+ 0.56296 2 1 tcp 1040 ------- 1 0.0 1.0 54 93
- 0.56296 2 1 tcp 1040 ------- 1 0.0 1.0 54 93
r 0.56416 2 0 ack 40 ------- 1 1.0 0.0 46 108
+ 0.56416 0 2 tcp 1040 ------- 1 0.0 1.0 66 117
r 0.56464 2 1 tcp 1040 ------- 1 0.0 1.0 51 87
+ 0.56464 1 2 ack 40 ------- 1 1.0 0.0 51 118
- 0.56464 1 2 ack 40 ------- 1 1.0 0.0 51 118
- 0.56544 0 2 tcp 1040 ------- 1 0.0 1.0 58 101
r 0.56648 1 2 ack 40 ------- 1 1.0 0.0 49 114
+ 0.56648 2 0 ack 40 ------- 1 1.0 0.0 49 114
- 0.56648 2 0 ack 40 ------- 1 1.0 0.0 49 114
r 0.56712 0 2 tcp 1040 ------- 1 0.0 1.0 55 95
+ 0.56712 2 1 tcp 1040 ------- 1 0.0 1.0 55 95
- 0.56712 2 1 tcp 1040 ------- 1 0.0 1.0 55 95
r 0.56832 2 0 ack 40 ------- 1 1.0 0.0 47 110
+ 0.56832 0 2 tcp 1040 ------- 1 0.0 1.0 67 119
r 0.5688 2 1 tcp 1040 ------- 1 0.0 1.0 52 89
+ 0.5688 1 2 ack 40 ------- 1 1.0 0.0 52 120
- 0.5688 1 2 ack 40 ------- 1 1.0 0.0 52 120
- 0.5696 0 2 tcp 1040 ------- 1 0.0 1.0 59 103
r 0.57064 1 2 ack 40 ------- 1 1.0 0.0 50 116
+ 0.57064 2 0 ack 40 ------- 1 1.0 0.0 50 116
- 0.57064 2 0 ack 40 ------- 1 1.0 0.0 50 116
r 0.57128 0 2 tcp 1040 ------- 1 0.0 1.0 56 97