+ 0.1 0 1 tcp 40 ------- 2 0.0 2.0 0 0
- 0.1 0 1 tcp 40 ------- 2 0.0 2.0 0 0
r 0.11016 0 1 tcp 40 ------- 2 0.0 2.0 0 0
+ 0.11016 1 2 tcp 40 ------- 2 0.0 2.0 0 0
- 0.11016 1 2 tcp 40 ------- 2 0.0 2.0 0 0
r 0.12032 1 2 tcp 40 ------- 2 0.0 2.0 0 0
+ 0.12032 2 1 ack 40 ------- 2 2.0 0.0 0 1
- 0.12032 2 1 ack 40 ------- 2 2.0 0.0 0 1
r 0.13048 2 1 ack 40 ------- 2 2.0 0.0 0 1
+ 0.13048 1 0 ack 40 ------- 2 2.0 0.0 0 1
- 0.13048 1 0 ack 40 ------- 2 2.0 0.0 0 1
r 0.14064 1 0 ack 40 ------- 2 2.0 0.0 0 1
+ 0.14064 0 1 tcp 1040 ------- 2 0.0 2.0 1 2
- 0.14064 0 1 tcp 1040 ------- 2 0.0 2.0 1 2
+ 0.14064 0 1 tcp 1040 ------- 2 0.0 2.0 2 3
- 0.1448 0 1 tcp 1040 ------- 2 0.0 2.0 2 3
r 0.1548 0 1 tcp 1040 ------- 2 0.0 2.0 1 2
+ 0.1548 1 2 tcp 1040 ------- 2 0.0 2.0 1 2
- 0.1548 1 2 tcp 1040 ------- 2 0.0 2.0 1 2
r 0.15896 0 1 tcp 1040 ------- 2 0.0 2.0 2 3
+ 0.15896 1 2 tcp 1040 ------- 2 0.0 2.0 2 3
- 0.15896 1 2 tcp 1040 ------- 2 0.0 2.0 2 3
r 0.16896 1 2 tcp 1040 ------- 2 0.0 2.0 1 2
+ 0.16896 2 1 ack 40 ------- 2 2.0 0.0 1 4
- 0.16896 2 1 ack 40 ------- 2 2.0 0.0 1 4
r 0.17312 1 2 tcp 1040 ------- 2 0.0 2.0 2 3
+ 0.17312 2 1 ack 40 ------- 2 2.0 0.0 2 5
- 0.17312 2 1 ack 40 ------- 2 2.0 0.0 2 5
r 0.17912 2 1 ack 40 ------- 2 2.0 0.0 1 4
+ 0.17912 1 0 ack 40 ------- 2 2.0 0.0 1 4
- 0.17912 1 0 ack 40 ------- 2 2.0 0.0 1 4
r 0.18328 2 1 ack 40 ------- 2 2.0 0.0 2 5
+ 0.18328 1 0 ack 40 ------- 2 2.0 0.0 2 5
- 0.18328 1 0 ack 40 ------- 2 2.0 0.0 2 5
r 0.18928 1 0 ack 40 ------- 2 2.0 0.0 1 4
+ 0.18928 0 1 tcp 1040 ------- 2 0.0 2.0 3 6
- 0.18928 0 1 tcp 1040 ------- 2 0.0 2.0 3 6
+ 0.18928 0 1 tcp 1040 ------- 2 0.0 2.0 4 7
r 0.19344 1 0 ack 40 ------- 2 2.0 0.0 2 5
+ 0.19344 0 1 tcp 1040 ------- 2 0.0 2.0 5 8
+ 0.19344 0 1 tcp 1040 ------- 2 0.0 2.0 6 9
- 0.19344 0 1 tcp 1040 ------- 2 0.0 2.0 4 7
- 0.1976 0 1 tcp 1040 ------- 2 0.0 2.0 5 8
- 0.20176 0 1 tcp 1040 ------- 2 0.0 2.0 6 9
r 0.20344 0 1 tcp 1040 ------- 2 0.0 2.0 3 6
+ 0.20344 1 2 tcp 1040 ------- 2 0.0 2.0 3 6
- 0.20344 1 2 tcp 1040 ------- 2 0.0 2.0 3 6
r 0.2076 0 1 tcp 1040 ------- 2 0.0 2.0 4 7
+ 0.2076 1 2 tcp 1040 ------- 2 0.0 2.0 4 7
- 0.2076 1 2 tcp 1040 ------- 2 0.0 2.0 4 7
r 0.21176 0 1 tcp 1040 ------- 2 0.0 2.0 5 8
+ 0.21176 1 2 tcp 1040 ------- 2 0.0 2.0 5 8
- 0.21176 1 2 tcp 1040 ------- 2 0.0 2.0 5 8
r 0.21592 0 1 tcp 1040 ------- 2 0.0 2.0 6 9
+ 0.21592 1 2 tcp 1040 ------- 2 0.0 2.0 6 9
- 0.21592 1 2 tcp 1040 ------- 2 0.0 2.0 6 9
r 0.2176 1 2 tcp 1040 ------- 2 0.0 2.0 3 6
+ 0.2176 2 1 ack 40 ------- 2 2.0 0.0 3 10
- 0.2176 2 1 ack 40 ------- 2 2.0 0.0 3 10
r 0.22176 1 2 tcp 1040 ------- 2 0.0 2.0 4 7
+ 0.22176 2 1 ack 40 ------- 2 2.0 0.0 4 11
- 0.22176 2 1 ack 40 ------- 2 2.0 0.0 4 11
r 0.22592 1 2 tcp 1040 ------- 2 0.0 2.0 5 8
+ 0.22592 2 1 ack 40 ------- 2 2.0 0.0 5 12
- 0.22592 2 1 ack 40 ------- 2 2.0 0.0 5 12
r 0.22776 2 1 ack 40 ------- 2 2.0 0.0 3 10
+ 0.22776 1 0 ack 40 ------- 2 2.0 0.0 3 10
- 0.22776 1 0 ack 40 ------- 2 2.0 0.0 3 10
r 0.23008 1 2 tcp 1040 ------- 2 0.0 2.0 6 9
+ 0.23008 2 1 ack 40 ------- 2 2.0 0.0 6 13
- 0.23008 2 1 ack 40 ------- 2 2.0 0.0 6 13
r 0.23192 2 1 ack 40 ------- 2 2.0 0.0 4 11
+ 0.23192 1 0 ack 40 ------- 2 2.0 0.0 4 11
- 0.23192 1 0 ack 40 ------- 2 2.0 0.0 4 11
r 0.23608 2 1 ack 40 ------- 2 2.0 0.0 5 12
+ 0.23608 1 0 ack 40 ------- 2 2.0 0.0 5 12
- 0.23608 1 0 ack 40 ------- 2 2.0 0.0 5 12
r 0.23792 1 0 ack 40 ------- 2 2.0 0.0 3 10
+ 0.23792 0 1 tcp 1040 ------- 2 0.0 2.0 7 14
- 0.23792 0 1 tcp 1040 ------- 2 0.0 2.0 7 14
+ 0.23792 0 1 tcp 1040 ------- 2 0.0 2.0 8 15
r 0.24024 2 1 ack 40 ------- 2 2.0 0.0 6 13
+ 0.24024 1 0 ack 40 ------- 2 2.0 0.0 6 13
- 0.24024 1 0 ack 40 ------- 2 2.0 0.0 6 13
r 0.24208 1 0 ack 40 ------- 2 2.0 0.0 4 11
+ 0.24208 0 1 tcp 1040 ------- 2 0.0 2.0 9 16
+ 0.24208 0 1 tcp 1040 ------- 2 0.0 2.0 10 17
- 0.24208 0 1 tcp 1040 ------- 2 0.0 2.0 8 15
r 0.24624 1 0 ack 40 ------- 2 2.0 0.0 5 12
+ 0.24624 0 1 tcp 1040 ------- 2 0.0 2.0 11 18
+ 0.24624 0 1 tcp 1040 ------- 2 0.0 2.0 12 19
- 0.24624 0 1 tcp 1040 ------- 2 0.0 2.0 9 16
r 0.2504 1 0 ack 40 ------- 2 2.0 0.0 6 13
+ 0.2504 0 1 tcp 1040 ------- 2 0.0 2.0 13 20
+ 0.2504 0 1 tcp 1040 ------- 2 0.0 2.0 14 21
- 0.2504 0 1 tcp 1040 ------- 2 0.0 2.0 10 17
r 0.25208 0 1 tcp 1040 ------- 2 0.0 2.0 7 14
+ 0.25208 1 2 tcp 1040 ------- 2 0.0 2.0 7 14
- 0.25208 1 2 tcp 1040 ------- 2 0.0 2.0 7 14
- 0.25456 0 1 tcp 1040 ------- 2 0.0 2.0 11 18
r 0.25624 0 1 tcp 1040 ------- 2 0.0 2.0 8 15
+ 0.25624 1 2 tcp 1040 ------- 2 0.0 2.0 8 15
- 0.25624 1 2 tcp 1040 ------- 2 0.0 2.0 8 15
- 0.25872 0 1 tcp 1040 ------- 2 0.0 2.0 12 19
r 0.2604 0 1 tcp 1040 ------- 2 0.0 2.0 9 16
+ 0.2604 1 2 tcp 1040 ------- 2 0.0 2.0 9 16
- 0.2604 1 2 tcp 1040 ------- 2 0.0 2.0 9 16
- 0.26288 0 1 tcp 1040 ------- 2 0.0 2.0 13 20
r 0.26456 0 1 tcp 1040 ------- 2 0.0 2.0 10 17
+ 0.26456 1 2 tcp 1040 ------- 2 0.0 2.0 10 17
- 0.26456 1 2 tcp 1040 ------- 2 0.0 2.0 10 17
r 0.26624 1 2 tcp 1040 ------- 2 0.0 2.0 7 14
+ 0.26624 2 1 ack 40 ------- 2 2.0 0.0 7 22
- 0.26624 2 1 ack 40 ------- 2 2.0 0.0 7 22
- 0.26704 0 1 tcp 1040 ------- 2 0.0 2.0 14 21
r 0.26872 0 1 tcp 1040 ------- 2 0.0 2.0 11 18
+ 0.26872 1 2 tcp 1040 ------- 2 0.0 2.0 11 18
- 0.26872 1 2 tcp 1040 ------- 2 0.0 2.0 11 18
r 0.2704 1 2 tcp 1040 ------- 2 0.0 2.0 8 15
+ 0.2704 2 1 ack 40 ------- 2 2.0 0.0 8 23
- 0.2704 2 1 ack 40 ------- 2 2.0 0.0 8 23
r 0.27288 0 1 tcp 1040 ------- 2 0.0 2.0 12 19
+ 0.27288 1 2 tcp 1040 ------- 2 0.0 2.0 12 19
- 0.27288 1 2 tcp 1040 ------- 2 0.0 2.0 12 19
r 0.27456 1 2 tcp 1040 ------- 2 0.0 2.0 9 16
+ 0.27456 2 1 ack 40 ------- 2 2.0 0.0 9 24
- 0.27456 2 1 ack 40 ------- 2 2.0 0.0 9 24
r 0.2764 2 1 ack 40 ------- 2 2.0 0.0 7 22
+ 0.2764 1 0 ack 40 ------- 2 2.0 0.0 7 22
- 0.2764 1 0 ack 40 ------- 2 2.0 0.0 7 22
r 0.27704 0 1 tcp 1040 ------- 2 0.0 2.0 13 20
+ 0.27704 1 2 tcp 1040 ------- 2 0.0 2.0 13 20
- 0.27704 1 2 tcp 1040 ------- 2 0.0 2.0 13 20
r 0.27872 1 2 tcp 1040 ------- 2 0.0 2.0 10 17
+ 0.27872 2 1 ack 40 ------- 2 2.0 0.0 10 25
- 0.27872 2 1 ack 40 ------- 2 2.0 0.0 10 25
r 0.28056 2 1 ack 40 ------- 2 2.0 0.0 8 23
+ 0.28056 1 0 ack 40 ------- 2 2.0 0.0 8 23
- 0.28056 1 0 ack 40 ------- 2 2.0 0.0 8 23
r 0.2812 0 1 tcp 1040 ------- 2 0.0 2.0 14 21
+ 0.2812 1 2 tcp 1040 ------- 2 0.0 2.0 14 21
- 0.2812 1 2 tcp 1040 ------- 2 0.0 2.0 14 21
r 0.28288 1 2 tcp 1040 ------- 2 0.0 2.0 11 18
+ 0.28288 2 1 ack 40 ------- 2 2.0 0.0 11 26
- 0.28288 2 1 ack 40 ------- 2 2.0 0.0 11 26
r 0.28472 2 1 ack 40 ------- 2 2.0 0.0 9 24
+ 0.28472 1 0 ack 40 ------- 2 2.0 0.0 9 24
- 0.28472 1 0 ack 40 ------- 2 2.0 0.0 9 24
r 0.28656 1 0 ack 40 ------- 2 2.0 0.0 7 22
+ 0.28656 0 1 tcp 1040 ------- 2 0.0 2.0 15 27
- 0.28656 0 1 tcp 1040 ------- 2 0.0 2.0 15 27
+ 0.28656 0 1 tcp 1040 ------- 2 0.0 2.0 16 28
r 0.28704 1 2 tcp 1040 ------- 2 0.0 2.0 12 19
+ 0.28704 2 1 ack 40 ------- 2 2.0 0.0 12 29
- 0.28704 2 1 ack 40 ------- 2 2.0 0.0 12 29
r 0.28888 2 1 ack 40 ------- 2 2.0 0.0 10 25
+ 0.28888 1 0 ack 40 ------- 2 2.0 0.0 10 25
- 0.28888 1 0 ack 40 ------- 2 2.0 0.0 10 25
r 0.29072 1 0 ack 40 ------- 2 2.0 0.0 8 23
+ 0.29072 0 1 tcp 1040 ------- 2 0.0 2.0 17 30
+ 0.29072 0 1 tcp 1040 ------- 2 0.0 2.0 18 31
- 0.29072 0 1 tcp 1040 ------- 2 0.0 2.0 16 28
r 0.2912 1 2 tcp 1040 ------- 2 0.0 2.0 13 20
+ 0.2912 2 1 ack 40 ------- 2 2.0 0.0 13 32
- 0.2912 2 1 ack 40 ------- 2 2.0 0.0 13 32
r 0.29304 2 1 ack 40 ------- 2 2.0 0.0 11 26
+ 0.29304 1 0 ack 40 ------- 2 2.0 0.0 11 26
- 0.29304 1 0 ack 40 ------- 2 2.0 0.0 11 26
r 0.29488 1 0 ack 40 ------- 2 2.0 0.0 9 24
+ 0.29488 0 1 tcp 1040 ------- 2 0.0 2.0 19 33
+ 0.29488 0 1 tcp 1040 ------- 2 0.0 2.0 20 34
- 0.29488 0 1 tcp 1040 ------- 2 0.0 2.0 17 30
r 0.29536 1 2 tcp 1040 ------- 2 0.0 2.0 14 21
+ 0.29536 2 1 ack 40 ------- 2 2.0 0.0 14 35
- 0.29536 2 1 ack 40 ------- 2 2.0 0.0 14 35
r 0.2972 2 1 ack 40 ------- 2 2.0 0.0 12 29
+ 0.2972 1 0 ack 40 ------- 2 2.0 0.0 12 29
- 0.2972 1 0 ack 40 ------- 2 2.0 0.0 12 29
- 0.29904 0 1 tcp 1040 ------- 2 0.0 2.0 18 31
r 0.29904 1 0 ack 40 ------- 2 2.0 0.0 10 25
+ 0.29904 0 1 tcp 1040 ------- 2 0.0 2.0 21 36
+ 0.29904 0 1 tcp 1040 ------- 2 0.0 2.0 22 37
r 0.30072 0 1 tcp 1040 ------- 2 0.0 2.0 15 27
+ 0.30072 1 2 tcp 1040 ------- 2 0.0 2.0 15 27
- 0.30072 1 2 tcp 1040 ------- 2 0.0 2.0 15 27
r 0.30136 2 1 ack 40 ------- 2 2.0 0.0 13 32
+ 0.30136 1 0 ack 40 ------- 2 2.0 0.0 13 32
- 0.30136 1 0 ack 40 ------- 2 2.0 0.0 13 32
- 0.3032 0 1 tcp 1040 ------- 2 0.0 2.0 19 33
r 0.3032 1 0 ack 40 ------- 2 2.0 0.0 11 26
+ 0.3032 0 1 tcp 1040 ------- 2 0.0 2.0 23 38
+ 0.3032 0 1 tcp 1040 ------- 2 0.0 2.0 24 39
r 0.30488 0 1 tcp 1040 ------- 2 0.0 2.0 16 28
+ 0.30488 1 2 tcp 1040 ------- 2 0.0 2.0 16 28
- 0.30488 1 2 tcp 1040 ------- 2 0.0 2.0 16 28
r 0.30552 2 1 ack 40 ------- 2 2.0 0.0 14 35
+ 0.30552 1 0 ack 40 ------- 2 2.0 0.0 14 35
- 0.30552 1 0 ack 40 ------- 2 2.0 0.0 14 35
- 0.30736 0 1 tcp 1040 ------- 2 0.0 2.0 20 34
r 0.30736 1 0 ack 40 ------- 2 2.0 0.0 12 29
+ 0.30736 0 1 tcp 1040 ------- 2 0.0 2.0 25 40
+ 0.30736 0 1 tcp 1040 ------- 2 0.0 2.0 26 41
r 0.30904 0 1 tcp 1040 ------- 2 0.0 2.0 17 30
+ 0.30904 1 2 tcp 1040 ------- 2 0.0 2.0 17 30
- 0.30904 1 2 tcp 1040 ------- 2 0.0 2.0 17 30
- 0.31152 0 1 tcp 1040 ------- 2 0.0 2.0 21 36
r 0.31152 1 0 ack 40 ------- 2 2.0 0.0 13 32
+ 0.31152 0 1 tcp 1040 ------- 2 0.0 2.0 27 42
+ 0.31152 0 1 tcp 1040 ------- 2 0.0 2.0 28 43
r 0.3132 0 1 tcp 1040 ------- 2 0.0 2.0 18 31
+ 0.3132 1 2 tcp 1040 ------- 2 0.0 2.0 18 31
- 0.3132 1 2 tcp 1040 ------- 2 0.0 2.0 18 31
r 0.31488 1 2 tcp 1040 ------- 2 0.0 2.0 15 27
+ 0.31488 2 1 ack 40 ------- 2 2.0 0.0 15 44
- 0.31488 2 1 ack 40 ------- 2 2.0 0.0 15 44
- 0.31568 0 1 tcp 1040 ------- 2 0.0 2.0 22 37
r 0.31568 1 0 ack 40 ------- 2 2.0 0.0 14 35
+ 0.31568 0 1 tcp 1040 ------- 2 0.0 2.0 29 45
+ 0.31568 0 1 tcp 1040 ------- 2 0.0 2.0 30 46
r 0.31736 0 1 tcp 1040 ------- 2 0.0 2.0 19 33
+ 0.31736 1 2 tcp 1040 ------- 2 0.0 2.0 19 33
- 0.31736 1 2 tcp 1040 ------- 2 0.0 2.0 19 33
r 0.31904 1 2 tcp 1040 ------- 2 0.0 2.0 16 28
+ 0.31904 2 1 ack 40 ------- 2 2.0 0.0 16 47
- 0.31904 2 1 ack 40 ------- 2 2.0 0.0 16 47
- 0.31984 0 1 tcp 1040 ------- 2 0.0 2.0 23 38
r 0.32152 0 1 tcp 1040 ------- 2 0.0 2.0 20 34
+ 0.32152 1 2 tcp 1040 ------- 2 0.0 2.0 20 34
- 0.32152 1 2 tcp 1040 ------- 2 0.0 2.0 20 34
r 0.3232 1 2 tcp 1040 ------- 2 0.0 2.0 17 30
+ 0.3232 2 1 ack 40 ------- 2 2.0 0.0 17 48
- 0.3232 2 1 ack 40 ------- 2 2.0 0.0 17 48
- 0.324 0 1 tcp 1040 ------- 2 0.0 2.0 24 39
r 0.32504 2 1 ack 40 ------- 2 2.0 0.0 15 44
+ 0.32504 1 0 ack 40 ------- 2 2.0 0.0 15 44
- 0.32504 1 0 ack 40 ------- 2 2.0 0.0 15 44
r 0.32568 0 1 tcp 1040 ------- 2 0.0 2.0 21 36
+ 0.32568 1 2 tcp 1040 ------- 2 0.0 2.0 21 36
- 0.32568 1 2 tcp 1040 ------- 2 0.0 2.0 21 36
r 0.32736 1 2 tcp 1040 ------- 2 0.0 2.0 18 31
+ 0.32736 2 1 ack 40 ------- 2 2.0 0.0 18 49
- 0.32736 2 1 ack 40 ------- 2 2.0 0.0 18 49
- 0.32816 0 1 tcp 1040 ------- 2 0.0 2.0 25 40
r 0.3292 2 1 ack 40 ------- 2 2.0 0.0 16 47
+ 0.3292 1 0 ack 40 ------- 2 2.0 0.0 16 47
- 0.3292 1 0 ack 40 ------- 2 2.0 0.0 16 47
r 0.32984 0 1 tcp 1040 ------- 2 0.0 2.0 22 37
+ 0.32984 1 2 tcp 1040 ------- 2 0.0 2.0 22 37
- 0.32984 1 2 tcp 1040 ------- 2 0.0 2.0 22 37
r 0.33152 1 2 tcp 1040 ------- 2 0.0 2.0 19 33
+ 0.33152 2 1 ack 40 ------- 2 2.0 0.0 19 50
- 0.33152 2 1 ack 40 ------- 2 2.0 0.0 19 50
- 0.33232 0 1 tcp 1040 ------- 2 0.0 2.0 26 41
r 0.33336 2 1 ack 40 ------- 2 2.0 0.0 17 48
+ 0.33336 1 0 ack 40 ------- 2 2.0 0.0 17 48
- 0.33336 1 0 ack 40 ------- 2 2.0 0.0 17 48
r 0.334 0 1 tcp 1040 ------- 2 0.0 2.0 23 38
+ 0.334 1 2 tcp 1040 ------- 2 0.0 2.0 23 38
- 0.334 1 2 tcp 1040 ------- 2 0.0 2.0 23 38
r 0.3352 1 0 ack 40 ------- 2 2.0 0.0 15 44
+ 0.3352 0 1 tcp 1040 ------- 2 0.0 2.0 31 51
+ 0.3352 0 1 tcp 1040 ------- 2 0.0 2.0 32 52
r 0.33568 1 2 tcp 1040 ------- 2 0.0 2.0 20 34
+ 0.33568 2 1 ack 40 ------- 2 2.0 0.0 20 53
- 0.33568 2 1 ack 40 ------- 2 2.0 0.0 20 53
- 0.33648 0 1 tcp 1040 ------- 2 0.0 2.0 27 42
r 0.33752 2 1 ack 40 ------- 2 2.0 0.0 18 49
+ 0.33752 1 0 ack 40 ------- 2 2.0 0.0 18 49
- 0.33752 1 0 ack 40 ------- 2 2.0 0.0 18 49
r 0.33816 0 1 tcp 1040 ------- 2 0.0 2.0 24 39
+ 0.33816 1 2 tcp 1040 ------- 2 0.0 2.0 24 39
- 0.33816 1 2 tcp 1040 ------- 2 0.0 2.0 24 39
r 0.33936 1 0 ack 40 ------- 2 2.0 0.0 16 47
+ 0.33936 0 1 tcp 1040 ------- 2 0.0 2.0 33 54
+ 0.33936 0 1 tcp 1040 ------- 2 0.0 2.0 34 55
r 0.33984 1 2 tcp 1040 ------- 2 0.0 2.0 21 36
+ 0.33984 2 1 ack 40 ------- 2 2.0 0.0 21 56
- 0.33984 2 1 ack 40 ------- 2 2.0 0.0 21 56
- 0.34064 0 1 tcp 1040 ------- 2 0.0 2.0 28 43
r 0.34168 2 1 ack 40 ------- 2 2.0 0.0 19 50
+ 0.34168 1 0 ack 40 ------- 2 2.0 0.0 19 50
- 0.34168 1 0 ack 40 ------- 2 2.0 0.0 19 50
r 0.34232 0 1 tcp 1040 ------- 2 0.0 2.0 25 40
+ 0.34232 1 2 tcp 1040 ------- 2 0.0 2.0 25 40
- 0.34232 1 2 tcp 1040 ------- 2 0.0 2.0 25 40
r 0.34352 1 0 ack 40 ------- 2 2.0 0.0 17 48
+ 0.34352 0 1 tcp 1040 ------- 2 0.0 2.0 35 57
+ 0.34352 0 1 tcp 1040 ------- 2 0.0 2.0 36 58
r 0.344 1 2 tcp 1040 ------- 2 0.0 2.0 22 37
+ 0.344 2 1 ack 40 ------- 2 2.0 0.0 22 59
- 0.344 2 1 ack 40 ------- 2 2.0 0.0 22 59
- 0.3448 0 1 tcp 1040 ------- 2 0.0 2.0 29 45
r 0.34584 2 1 ack 40 ------- 2 2.0 0.0 20 53
+ 0.34584 1 0 ack 40 ------- 2 2.0 0.0 20 53
- 0.34584 1 0 ack 40 ------- 2 2.0 0.0 20 53
r 0.34648 0 1 tcp 1040 ------- 2 0.0 2.0 26 41
+ 0.34648 1 2 tcp 1040 ------- 2 0.0 2.0 26 41
- 0.34648 1 2 tcp 1040 ------- 2 0.0 2.0 26 41
r 0.34768 1 0 ack 40 ------- 2 2.0 0.0 18 49
+ 0.34768 0 1 tcp 1040 ------- 2 0.0 2.0 37 60
+ 0.34768 0 1 tcp 1040 ------- 2 0.0 2.0 38 61
r 0.34816 1 2 tcp 1040 ------- 2 0.0 2.0 23 38
+ 0.34816 2 1 ack 40 ------- 2 2.0 0.0 23 62
- 0.34816 2 1 ack 40 ------- 2 2.0 0.0 23 62
- 0.34896 0 1 tcp 1040 ------- 2 0.0 2.0 30 46
r 0.35 2 1 ack 40 ------- 2 2.0 0.0 21 56
+ 0.35 1 0 ack 40 ------- 2 2.0 0.0 21 56
- 0.35 1 0 ack 40 ------- 2 2.0 0.0 21 56
r 0.35064 0 1 tcp 1040 ------- 2 0.0 2.0 27 42
+ 0.35064 1 2 tcp 1040 ------- 2 0.0 2.0 27 42
- 0.35064 1 2 tcp 1040 ------- 2 0.0 2.0 27 42
r 0.35184 1 0 ack 40 ------- 2 2.0 0.0 19 50
+ 0.35184 0 1 tcp 1040 ------- 2 0.0 2.0 39 63
r 0.35232 1 2 tcp 1040 ------- 2 0.0 2.0 24 39
+ 0.35232 2 1 ack 40 ------- 2 2.0 0.0 24 64
- 0.35232 2 1 ack 40 ------- 2 2.0 0.0 24 64
- 0.35312 0 1 tcp 1040 ------- 2 0.0 2.0 31 51
r 0.35416 2 1 ack 40 ------- 2 2.0 0.0 22 59
+ 0.35416 1 0 ack 40 ------- 2 2.0 0.0 22 59
- 0.35416 1 0 ack 40 ------- 2 2.0 0.0 22 59
r 0.3548 0 1 tcp 1040 ------- 2 0.0 2.0 28 43
+ 0.3548 1 2 tcp 1040 ------- 2 0.0 2.0 28 43
- 0.3548 1 2 tcp 1040 ------- 2 0.0 2.0 28 43
r 0.356 1 0 ack 40 ------- 2 2.0 0.0 20 53
+ 0.356 0 1 tcp 1040 ------- 2 0.0 2.0 40 65
r 0.35648 1 2 tcp 1040 ------- 2 0.0 2.0 25 40
+ 0.35648 2 1 ack 40 ------- 2 2.0 0.0 25 66
- 0.35648 2 1 ack 40 ------- 2 2.0 0.0 25 66
- 0.35728 0 1 tcp 1040 ------- 2 0.0 2.0 32 52
r 0.35832 2 1 ack 40 ------- 2 2.0 0.0 23 62
+ 0.35832 1 0 ack 40 ------- 2 2.0 0.0 23 62
- 0.35832 1 0 ack 40 ------- 2 2.0 0.0 23 62
r 0.35896 0 1 tcp 1040 ------- 2 0.0 2.0 29 45
+ 0.35896 1 2 tcp 1040 ------- 2 0.0 2.0 29 45
- 0.35896 1 2 tcp 1040 ------- 2 0.0 2.0 29 45
r 0.36016 1 0 ack 40 ------- 2 2.0 0.0 21 56
+ 0.36016 0 1 tcp 1040 ------- 2 0.0 2.0 41 67
r 0.36064 1 2 tcp 1040 ------- 2 0.0 2.0 26 41
+ 0.36064 2 1 ack 40 ------- 2 2.0 0.0 26 68
- 0.36064 2 1 ack 40 ------- 2 2.0 0.0 26 68
- 0.36144 0 1 tcp 1040 ------- 2 0.0 2.0 33 54
r 0.36248 2 1 ack 40 ------- 2 2.0 0.0 24 64
+ 0.36248 1 0 ack 40 ------- 2 2.0 0.0 24 64
- 0.36248 1 0 ack 40 ------- 2 2.0 0.0 24 64
r 0.36312 0 1 tcp 1040 ------- 2 0.0 2.0 30 46
+ 0.36312 1 2 tcp 1040 ------- 2 0.0 2.0 30 46
- 0.36312 1 2 tcp 1040 ------- 2 0.0 2.0 30 46
r 0.36432 1 0 ack 40 ------- 2 2.0 0.0 22 59
+ 0.36432 0 1 tcp 1040 ------- 2 0.0 2.0 42 69
r 0.3648 1 2 tcp 1040 ------- 2 0.0 2.0 27 42
+ 0.3648 2 1 ack 40 ------- 2 2.0 0.0 27 70
- 0.3648 2 1 ack 40 ------- 2 2.0 0.0 27 70
- 0.3656 0 1 tcp 1040 ------- 2 0.0 2.0 34 55
r 0.36664 2 1 ack 40 ------- 2 2.0 0.0 25 66
+ 0.36664 1 0 ack 40 ------- 2 2.0 0.0 25 66
- 0.36664 1 0 ack 40 ------- 2 2.0 0.0 25 66
r 0.36728 0 1 tcp 1040 ------- 2 0.0 2.0 31 51
+ 0.36728 1 2 tcp 1040 ------- 2 0.0 2.0 31 51
- 0.36728 1 2 tcp 1040 ------- 2 0.0 2.0 31 51
r 0.36848 1 0 ack 40 ------- 2 2.0 0.0 23 62
+ 0.36848 0 1 tcp 1040 ------- 2 0.0 2.0 43 71
r 0.36896 1 2 tcp 1040 ------- 2 0.0 2.0 28 43
+ 0.36896 2 1 ack 40 ------- 2 2.0 0.0 28 72
- 0.36896 2 1 ack 40 ------- 2 2.0 0.0 28 72
- 0.36976 0 1 tcp 1040 ------- 2 0.0 2.0 35 57
r 0.3708 2 1 ack 40 ------- 2 2.0 0.0 26 68
+ 0.3708 1 0 ack 40 ------- 2 2.0 0.0 26 68
- 0.3708 1 0 ack 40 ------- 2 2.0 0.0 26 68
r 0.37144 0 1 tcp 1040 ------- 2 0.0 2.0 32 52
+ 0.37144 1 2 tcp 1040 ------- 2 0.0 2.0 32 52
- 0.37144 1 2 tcp 1040 ------- 2 0.0 2.0 32 52
r 0.37264 1 0 ack 40 ------- 2 2.0 0.0 24 64
+ 0.37264 0 1 tcp 1040 ------- 2 0.0 2.0 44 73
r 0.37312 1 2 tcp 1040 ------- 2 0.0 2.0 29 45
+ 0.37312 2 1 ack 40 ------- 2 2.0 0.0 29 74
- 0.37312 2 1 ack 40 ------- 2 2.0 0.0 29 74
- 0.37392 0 1 tcp 1040 ------- 2 0.0 2.0 36 58
r 0.37496 2 1 ack 40 ------- 2 2.0 0.0 27 70
+ 0.37496 1 0 ack 40 ------- 2 2.0 0.0 27 70
- 0.37496 1 0 ack 40 ------- 2 2.0 0.0 27 70
r 0.3756 0 1 tcp 1040 ------- 2 0.0 2.0 33 54
+ 0.3756 1 2 tcp 1040 ------- 2 0.0 2.0 33 54
- 0.3756 1 2 tcp 1040 ------- 2 0.0 2.0 33 54
r 0.3768 1 0 ack 40 ------- 2 2.0 0.0 25 66
+ 0.3768 0 1 tcp 1040 ------- 2 0.0 2.0 45 75
r 0.37728 1 2 tcp 1040 ------- 2 0.0 2.0 30 46
+ 0.37728 2 1 ack 40 ------- 2 2.0 0.0 30 76
- 0.37728 2 1 ack 40 ------- 2 2.0 0.0 30 76
- 0.37808 0 1 tcp 1040 ------- 2 0.0 2.0 37 60
r 0.37912 2 1 ack 40 ------- 2 2.0 0.0 28 72
+ 0.37912 1 0 ack 40 ------- 2 2.0 0.0 28 72
- 0.37912 1 0 ack 40 ------- 2 2.0 0.0 28 72
r 0.37976 0 1 tcp 1040 ------- 2 0.0 2.0 34 55
+ 0.37976 1 2 tcp 1040 ------- 2 0.0 2.0 34 55
- 0.37976 1 2 tcp 1040 ------- 2 0.0 2.0 34 55
r 0.38096 1 0 ack 40 ------- 2 2.0 0.0 26 68
+ 0.38096 0 1 tcp 1040 ------- 2 0.0 2.0 46 77
r 0.38144 1 2 tcp 1040 ------- 2 0.0 2.0 31 51
+ 0.38144 2 1 ack 40 ------- 2 2.0 0.0 31 78
- 0.38144 2 1 ack 40 ------- 2 2.0 0.0 31 78
- 0.38224 0 1 tcp 1040 ------- 2 0.0 2.0 38 61
r 0.38328 2 1 ack 40 ------- 2 2.0 0.0 29 74
+ 0.38328 1 0 ack 40 ------- 2 2.0 0.0 29 74
- 0.38328 1 0 ack 40 ------- 2 2.0 0.0 29 74
r 0.38392 0 1 tcp 1040 ------- 2 0.0 2.0 35 57
+ 0.38392 1 2 tcp 1040 ------- 2 0.0 2.0 35 57
- 0.38392 1 2 tcp 1040 ------- 2 0.0 2.0 35 57
r 0.38512 1 0 ack 40 ------- 2 2.0 0.0 27 70
+ 0.38512 0 1 tcp 1040 ------- 2 0.0 2.0 47 79
r 0.3856 1 2 tcp 1040 ------- 2 0.0 2.0 32 52
+ 0.3856 2 1 ack 40 ------- 2 2.0 0.0 32 80
- 0.3856 2 1 ack 40 ------- 2 2.0 0.0 32 80
- 0.3864 0 1 tcp 1040 ------- 2 0.0 2.0 39 63
r 0.38744 2 1 ack 40 ------- 2 2.0 0.0 30 76
+ 0.38744 1 0 ack 40 ------- 2 2.0 0.0 30 76
- 0.38744 1 0 ack 40 ------- 2 2.0 0.0 30 76
r 0.38808 0 1 tcp 1040 ------- 2 0.0 2.0 36 58
+ 0.38808 1 2 tcp 1040 ------- 2 0.0 2.0 36 58
- 0.38808 1 2 tcp 1040 ------- 2 0.0 2.0 36 58
r 0.38928 1 0 ack 40 ------- 2 2.0 0.0 28 72
+ 0.38928 0 1 tcp 1040 ------- 2 0.0 2.0 48 81
r 0.38976 1 2 tcp 1040 ------- 2 0.0 2.0 33 54
+ 0.38976 2 1 ack 40 ------- 2 2.0 0.0 33 82
- 0.38976 2 1 ack 40 ------- 2 2.0 0.0 33 82
- 0.39056 0 1 tcp 1040 ------- 2 0.0 2.0 40 65
r 0.3916 2 1 ack 40 ------- 2 2.0 0.0 31 78
+ 0.3916 1 0 ack 40 ------- 2 2.0 0.0 31 78
- 0.3916 1 0 ack 40 ------- 2 2.0 0.0 31 78
r 0.39224 0 1 tcp 1040 ------- 2 0.0 2.0 37 60
+ 0.39224 1 2 tcp 1040 ------- 2 0.0 2.0 37 60
- 0.39224 1 2 tcp 1040 ------- 2 0.0 2.0 37 60
r 0.39344 1 0 ack 40 ------- 2 2.0 0.0 29 74
+ 0.39344 0 1 tcp 1040 ------- 2 0.0 2.0 49 83
r 0.39392 1 2 tcp 1040 ------- 2 0.0 2.0 34 55
+ 0.39392 2 1 ack 40 ------- 2 2.0 0.0 34 84
- 0.39392 2 1 ack 40 ------- 2 2.0 0.0 34 84
- 0.39472 0 1 tcp 1040 ------- 2 0.0 2.0 41 67
r 0.39576 2 1 ack 40 ------- 2 2.0 0.0 32 80
+ 0.39576 1 0 ack 40 ------- 2 2.0 0.0 32 80
- 0.39576 1 0 ack 40 ------- 2 2.0 0.0 32 80
r 0.3964 0 1 tcp 1040 ------- 2 0.0 2.0 38 61
+ 0.3964 1 2 tcp 1040 ------- 2 0.0 2.0 38 61
- 0.3964 1 2 tcp 1040 ------- 2 0.0 2.0 38 61
r 0.3976 1 0 ack 40 ------- 2 2.0 0.0 30 76
+ 0.3976 0 1 tcp 1040 ------- 2 0.0 2.0 50 85
r 0.39808 1 2 tcp 1040 ------- 2 0.0 2.0 35 57
+ 0.39808 2 1 ack 40 ------- 2 2.0 0.0 35 86
- 0.39808 2 1 ack 40 ------- 2 2.0 0.0 35 86
- 0.39888 0 1 tcp 1040 ------- 2 0.0 2.0 42 69
r 0.39992 2 1 ack 40 ------- 2 2.0 0.0 33 82
+ 0.39992 1 0 ack 40 ------- 2 2.0 0.0 33 82
- 0.39992 1 0 ack 40 ------- 2 2.0 0.0 33 82
r 0.40056 0 1 tcp 1040 ------- 2 0.0 2.0 39 63
+ 0.40056 1 2 tcp 1040 ------- 2 0.0 2.0 39 63
- 0.40056 1 2 tcp 1040 ------- 2 0.0 2.0 39 63
r 0.40176 1 0 ack 40 ------- 2 2.0 0.0 31 78
+ 0.40176 0 1 tcp 1040 ------- 2 0.0 2.0 51 87
r 0.40224 1 2 tcp 1040 ------- 2 0.0 2.0 36 58
+ 0.40224 2 1 ack 40 ------- 2 2.0 0.0 36 88
- 0.40224 2 1 ack 40 ------- 2 2.0 0.0 36 88
- 0.40304 0 1 tcp 1040 ------- 2 0.0 2.0 43 71
r 0.40408 2 1 ack 40 ------- 2 2.0 0.0 34 84
+ 0.40408 1 0 ack 40 ------- 2 2.0 0.0 34 84
- 0.40408 1 0 ack 40 ------- 2 2.0 0.0 34 84
r 0.40472 0 1 tcp 1040 ------- 2 0.0 2.0 40 65
+ 0.40472 1 2 tcp 1040 ------- 2 0.0 2.0 40 65
- 0.40472 1 2 tcp 1040 ------- 2 0.0 2.0 40 65
r 0.40592 1 0 ack 40 ------- 2 2.0 0.0 32 80
+ 0.40592 0 1 tcp 1040 ------- 2 0.0 2.0 52 89
r 0.4064 1 2 tcp 1040 ------- 2 0.0 2.0 37 60
+ 0.4064 2 1 ack 40 ------- 2 2.0 0.0 37 90
- 0.4064 2 1 ack 40 ------- 2 2.0 0.0 37 90
- 0.4072 0 1 tcp 1040 ------- 2 0.0 2.0 44 73
r 0.40824 2 1 ack 40 ------- 2 2.0 0.0 35 86
+ 0.40824 1 0 ack 40 ------- 2 2.0 0.0 35 86
- 0.40824 1 0 ack 40 ------- 2 2.0 0.0 35 86
r 0.40888 0 1 tcp 1040 ------- 2 0.0 2.0 41 67
+ 0.40888 1 2 tcp 1040 ------- 2 0.0 2.0 41 67
- 0.40888 1 2 tcp 1040 ------- 2 0.0 2.0 41 67
r 0.41008 1 0 ack 40 ------- 2 2.0 0.0 33 82
+ 0.41008 0 1 tcp 1040 ------- 2 0.0 2.0 53 91
r 0.41056 1 2 tcp 1040 ------- 2 0.0 2.0 38 61
+ 0.41056 2 1 ack 40 ------- 2 2.0 0.0 38 92
- 0.41056 2 1 ack 40 ------- 2 2.0 0.0 38 92
- 0.41136 0 1 tcp 1040 ------- 2 0.0 2.0 45 75
r 0.4124 2 1 ack 40 ------- 2 2.0 0.0 36 88
+ 0.4124 1 0 ack 40 ------- 2 2.0 0.0 36 88
- 0.4124 1 0 ack 40 ------- 2 2.0 0.0 36 88
r 0.41304 0 1 tcp 1040 ------- 2 0.0 2.0 42 69
+ 0.41304 1 2 tcp 1040 ------- 2 0.0 2.0 42 69
- 0.41304 1 2 tcp 1040 ------- 2 0.0 2.0 42 69
r 0.41424 1 0 ack 40 ------- 2 2.0 0.0 34 84
+ 0.41424 0 1 tcp 1040 ------- 2 0.0 2.0 54 93
r 0.41472 1 2 tcp 1040 ------- 2 0.0 2.0 39 63
+ 0.41472 2 1 ack 40 ------- 2 2.0 0.0 39 94
- 0.41472 2 1 ack 40 ------- 2 2.0 0.0 39 94
- 0.41552 0 1 tcp 1040 ------- 2 0.0 2.0 46 77
r 0.41656 2 1 ack 40 ------- 2 2.0 0.0 37 90
+ 0.41656 1 0 ack 40 ------- 2 2.0 0.0 37 90
- 0.41656 1 0 ack 40 ------- 2 2.0 0.0 37 90
r 0.4172 0 1 tcp 1040 ------- 2 0.0 2.0 43 71
+ 0.4172 1 2 tcp 1040 ------- 2 0.0 2.0 43 71
- 0.4172 1 2 tcp 1040 ------- 2 0.0 2.0 43 71
r 0.4184 1 0 ack 40 ------- 2 2.0 0.0 35 86
+ 0.4184 0 1 tcp 1040 ------- 2 0.0 2.0 55 95
r 0.41888 1 2 tcp 1040 ------- 2 0.0 2.0 40 65
+ 0.41888 2 1 ack 40 ------- 2 2.0 0.0 40 96
- 0.41888 2 1 ack 40 ------- 2 2.0 0.0 40 96
- 0.41968 0 1 tcp 1040 ------- 2 0.0 2.0 47 79
r 0.42072 2 1 ack 40 ------- 2 2.0 0.0 38 92
+ 0.42072 1 0 ack 40 ------- 2 2.0 0.0 38 92
- 0.42072 1 0 ack 40 ------- 2 2.0 0.0 38 92
r 0.42136 0 1 tcp 1040 ------- 2 0.0 2.0 44 73
+ 0.42136 1 2 tcp 1040 ------- 2 0.0 2.0 44 73
- 0.42136 1 2 tcp 1040 ------- 2 0.0 2.0 44 73
r 0.42256 1 0 ack 40 ------- 2 2.0 0.0 36 88
+ 0.42256 0 1 tcp 1040 ------- 2 0.0 2.0 56 97
r 0.42304 1 2 tcp 1040 ------- 2 0.0 2.0 41 67
+ 0.42304 2 1 ack 40 ------- 2 2.0 0.0 41 98
- 0.42304 2 1 ack 40 ------- 2 2.0 0.0 41 98
- 0.42384 0 1 tcp 1040 ------- 2 0.0 2.0 48 81
r 0.42488 2 1 ack 40 ------- 2 2.0 0.0 39 94
+ 0.42488 1 0 ack 40 ------- 2 2.0 0.0 39 94
- 0.42488 1 0 ack 40 ------- 2 2.0 0.0 39 94
r 0.42552 0 1 tcp 1040 ------- 2 0.0 2.0 45 75
+ 0.42552 1 2 tcp 1040 ------- 2 0.0 2.0 45 75
- 0.42552 1 2 tcp 1040 ------- 2 0.0 2.0 45 75
r 0.42672 1 0 ack 40 ------- 2 2.0 0.0 37 90
+ 0.42672 0 1 tcp 1040 ------- 2 0.0 2.0 57 99
r 0.4272 1 2 tcp 1040 ------- 2 0.0 2.0 42 69
+ 0.4272 2 1 ack 40 ------- 2 2.0 0.0 42 100
- 0.4272 2 1 ack 40 ------- 2 2.0 0.0 42 100
- 0.428 0 1 tcp 1040 ------- 2 0.0 2.0 49 83
r 0.42904 2 1 ack 40 ------- 2 2.0 0.0 40 96
+ 0.42904 1 0 ack 40 ------- 2 2.0 0.0 40 96
- 0.42904 1 0 ack 40 ------- 2 2.0 0.0 40 96
r 0.42968 0 1 tcp 1040 ------- 2 0.0 2.0 46 77
+ 0.42968 1 2 tcp 1040 ------- 2 0.0 2.0 46 77
- 0.42968 1 2 tcp 1040 ------- 2 0.0 2.0 46 77
r 0.43088 1 0 ack 40 ------- 2 2.0 0.0 38 92
+ 0.43088 0 1 tcp 1040 ------- 2 0.0 2.0 58 101
r 0.43136 1 2 tcp 1040 ------- 2 0.0 2.0 43 71
+ 0.43136 2 1 ack 40 ------- 2 2.0 0.0 43 102
- 0.43136 2 1 ack 40 ------- 2 2.0 0.0 43 102
- 0.43216 0 1 tcp 1040 ------- 2 0.0 2.0 50 85
r 0.4332 2 1 ack 40 ------- 2 2.0 0.0 41 98
+ 0.4332 1 0 ack 40 ------- 2 2.0 0.0 41 98
- 0.4332 1 0 ack 40 ------- 2 2.0 0.0 41 98
r 0.43384 0 1 tcp 1040 ------- 2 0.0 2.0 47 79
+ 0.43384 1 2 tcp 1040 ------- 2 0.0 2.0 47 79
- 0.43384 1 2 tcp 1040 ------- 2 0.0 2.0 47 79
r 0.43504 1 0 ack 40 ------- 2 2.0 0.0 39 94
+ 0.43504 0 1 tcp 1040 ------- 2 0.0 2.0 59 103
r 0.43552 1 2 tcp 1040 ------- 2 0.0 2.0 44 73
+ 0.43552 2 1 ack 40 ------- 2 2.0 0.0 44 104
- 0.43552 2 1 ack 40 ------- 2 2.0 0.0 44 104
- 0.43632 0 1 tcp 1040 ------- 2 0.0 2.0 51 87
r 0.43736 2 1 ack 40 ------- 2 2.0 0.0 42 100
+ 0.43736 1 0 ack 40 ------- 2 2.0 0.0 42 100
- 0.43736 1 0 ack 40 ------- 2 2.0 0.0 42 100
r 0.438 0 1 tcp 1040 ------- 2 0.0 2.0 48 81
+ 0.438 1 2 tcp 1040 ------- 2 0.0 2.0 48 81
- 0.438 1 2 tcp 1040 ------- 2 0.0 2.0 48 81
r 0.4392 1 0 ack 40 ------- 2 2.0 0.0 40 96
+ 0.4392 0 1 tcp 1040 ------- 2 0.0 2.0 60 105
r 0.43968 1 2 tcp 1040 ------- 2 0.0 2.0 45 75
+ 0.43968 2 1 ack 40 ------- 2 2.0 0.0 45 106
- 0.43968 2 1 ack 40 ------- 2 2.0 0.0 45 106
- 0.44048 0 1 tcp 1040 ------- 2 0.0 2.0 52 89
r 0.44152 2 1 ack 40 ------- 2 2.0 0.0 43 102
+ 0.44152 1 0 ack 40 ------- 2 2.0 0.0 43 102
- 0.44152 1 0 ack 40 ------- 2 2.0 0.0 43 102
r 0.44216 0 1 tcp 1040 ------- 2 0.0 2.0 49 83
+ 0.44216 1 2 tcp 1040 ------- 2 0.0 2.0 49 83
- 0.44216 1 2 tcp 1040 ------- 2 0.0 2.0 49 83
r 0.44336 1 0 ack 40 ------- 2 2.0 0.0 41 98
+ 0.44336 0 1 tcp 1040 ------- 2 0.0 2.0 61 107
r 0.44384 1 2 tcp 1040 ------- 2 0.0 2.0 46 77
+ 0.44384 2 1 ack 40 ------- 2 2.0 0.0 46 108
- 0.44384 2 1 ack 40 ------- 2 2.0 0.0 46 108
- 0.44464 0 1 tcp 1040 ------- 2 0.0 2.0 53 91
r 0.44568 2 1 ack 40 ------- 2 2.0 0.0 44 104
+ 0.44568 1 0 ack 40 ------- 2 2.0 0.0 44 104
- 0.44568 1 0 ack 40 ------- 2 2.0 0.0 44 104
r 0.44632 0 1 tcp 1040 ------- 2 0.0 2.0 50 85
+ 0.44632 1 2 tcp 1040 ------- 2 0.0 2.0 50 85
- 0.44632 1 2 tcp 1040 ------- 2 0.0 2.0 50 85
r 0.44752 1 0 ack 40 ------- 2 2.0 0.0 42 100
+ 0.44752 0 1 tcp 1040 ------- 2 0.0 2.0 62 109
r 0.448 1 2 tcp 1040 ------- 2 0.0 2.0 47 79
+ 0.448 2 1 ack 40 ------- 2 2.0 0.0 47 110
- 0.448 2 1 ack 40 ------- 2 2.0 0.0 47 110
- 0.4488 0 1 tcp 1040 ------- 2 0.0 2.0 54 93
r 0.44984 2 1 ack 40 ------- 2 2.0 0.0 45 106
+ 0.44984 1 0 ack 40 ------- 2 2.0 0.0 45 106
- 0.44984 1 0 ack 40 ------- 2 2.0 0.0 45 106
r 0.45048 0 1 tcp 1040 ------- 2 0.0 2.0 51 87
+ 0.45048 1 2 tcp 1040 ------- 2 0.0 2.0 51 87
- 0.45048 1 2 tcp 1040 ------- 2 0.0 2.0 51 87
r 0.45168 1 0 ack 40 ------- 2 2.0 0.0 43 102
+ 0.45168 0 1 tcp 1040 ------- 2 0.0 2.0 63 111
r 0.45216 1 2 tcp 1040 ------- 2 0.0 2.0 48 81
+ 0.45216 2 1 ack 40 ------- 2 2.0 0.0 48 112
- 0.45216 2 1 ack 40 ------- 2 2.0 0.0 48 112
- 0.45296 0 1 tcp 1040 ------- 2 0.0 2.0 55 95
r 0.454 2 1 ack 40 ------- 2 2.0 0.0 46 108
+ 0.454 1 0 ack 40 ------- 2 2.0 0.0 46 108
- 0.454 1 0 ack 40 ------- 2 2.0 0.0 46 108
r 0.45464 0 1 tcp 1040 ------- 2 0.0 2.0 52 89
+ 0.45464 1 2 tcp 1040 ------- 2 0.0 2.0 52 89
- 0.45464 1 2 tcp 1040 ------- 2 0.0 2.0 52 89
r 0.45584 1 0 ack 40 ------- 2 2.0 0.0 44 104
+ 0.45584 0 1 tcp 1040 ------- 2 0.0 2.0 64 113
r 0.45632 1 2 tcp 1040 ------- 2 0.0 2.0 49 83
+ 0.45632 2 1 ack 40 ------- 2 2.0 0.0 49 114
- 0.45632 2 1 ack 40 ------- 2 2.0 0.0 49 114
- 0.45712 0 1 tcp 1040 ------- 2 0.0 2.0 56 97
r 0.45816 2 1 ack 40 ------- 2 2.0 0.0 47 110
+ 0.45816 1 0 ack 40 ------- 2 2.0 0.0 47 110
- 0.45816 1 0 ack 40 ------- 2 2.0 0.0 47 110
r 0.4588 0 1 tcp 1040 ------- 2 0.0 2.0 53 91
+ 0.4588 1 2 tcp 1040 ------- 2 0.0 2.0 53 91
- 0.4588 1 2 tcp 1040 ------- 2 0.0 2.0 53 91
r 0.46 1 0 ack 40 ------- 2 2.0 0.0 45 106
+ 0.46 0 1 tcp 1040 ------- 2 0.0 2.0 65 115
r 0.46048 1 2 tcp 1040 ------- 2 0.0 2.0 50 85
+ 0.46048 2 1 ack 40 ------- 2 2.0 0.0 50 116
- 0.46048 2 1 ack 40 ------- 2 2.0 0.0 50 116
- 0.46128 0 1 tcp 1040 ------- 2 0.0 2.0 57 99
r 0.46232 2 1 ack 40 ------- 2 2.0 0.0 48 112
+ 0.46232 1 0 ack 40 ------- 2 2.0 0.0 48 112
- 0.46232 1 0 ack 40 ------- 2 2.0 0.0 48 112
r 0.46296 0 1 tcp 1040 ------- 2 0.0 2.0 54 93
+ 0.46296 1 2 tcp 1040 ------- 2 0.0 2.0 54 93
- 0.46296 1 2 tcp 1040 ------- 2 0.0 2.0 54 93
r 0.46416 1 0 ack 40 ------- 2 2.0 0.0 46 108
+ 0.46416 0 1 tcp 1040 ------- 2 0.0 2.0 66 117
r 0.46464 1 2 tcp 1040 ------- 2 0.0 2.0 51 87
+ 0.46464 2 1 ack 40 ------- 2 2.0 0.0 51 118
- 0.46464 2 1 ack 40 ------- 2 2.0 0.0 51 118
- 0.46544 0 1 tcp 1040 ------- 2 0.0 2.0 58 101
r 0.46648 2 1 ack 40 ------- 2 2.0 0.0 49 114
+ 0.46648 1 0 ack 40 ------- 2 2.0 0.0 49 114
- 0.46648 1 0 ack 40 ------- 2 2.0 0.0 49 114
r 0.46712 0 1 tcp 1040 ------- 2 0.0 2.0 55 95
+ 0.46712 1 2 tcp 1040 ------- 2 0.0 2.0 55 95
- 0.46712 1 2 tcp 1040 ------- 2 0.0 2.0 55 95
r 0.46832 1 0 ack 40 ------- 2 2.0 0.0 47 110
+ 0.46832 0 1 tcp 1040 ------- 2 0.0 2.0 67 119
r 0.4688 1 2 tcp 1040 ------- 2 0.0 2.0 52 89
+ 0.4688 2 1 ack 40 ------- 2 2.0 0.0 52 120
- 0.4688 2 1 ack 40 ------- 2 2.0 0.0 52 120
- 0.4696 0 1 tcp 1040 ------- 2 0.0 2.0 59 103
r 0.47064 2 1 ack 40 ------- 2 2.0 0.0 50 116
+ 0.47064 1 0 ack 40 ------- 2 2.0 0.0 50 116
- 0.47064 1 0 ack 40 ------- 2 2.0 0.0 50 116
r 0.47128 0 1 tcp 1040 ------- 2 0.0 2.0 56 97