+ 0.1 1 0 tcp 40 ------- 1 1.0 3.0 0 0
- 0.1 1 0 tcp 40 ------- 1 1.0 3.0 0 0
r 0.13016 1 0 tcp 40 ------- 1 1.0 3.0 0 0
+ 0.13016 0 3 tcp 40 ------- 1 1.0 3.0 0 0
- 0.13016 0 3 tcp 40 ------- 1 1.0 3.0 0 0
r 0.160373 0 3 tcp 40 ------- 1 1.0 3.0 0 0
+ 0.160373 3 0 ack 40 ------- 1 3.0 1.0 0 1
- 0.160373 3 0 ack 40 ------- 1 3.0 1.0 0 1
r 0.190587 3 0 ack 40 ------- 1 3.0 1.0 0 1
+ 0.190587 0 1 ack 40 ------- 1 3.0 1.0 0 1
- 0.190587 0 1 ack 40 ------- 1 3.0 1.0 0 1
r 0.220747 0 1 ack 40 ------- 1 3.0 1.0 0 1
+ 0.220747 1 0 tcp 1040 ------- 1 1.0 3.0 1 2
- 0.220747 1 0 tcp 1040 ------- 1 1.0 3.0 1 2
+ 0.220747 1 0 tcp 1040 ------- 1 1.0 3.0 2 3
- 0.224907 1 0 tcp 1040 ------- 1 1.0 3.0 2 3
r 0.254907 1 0 tcp 1040 ------- 1 1.0 3.0 1 2
+ 0.254907 0 3 tcp 1040 ------- 1 1.0 3.0 1 2
- 0.254907 0 3 tcp 1040 ------- 1 1.0 3.0 1 2
r 0.259067 1 0 tcp 1040 ------- 1 1.0 3.0 2 3
+ 0.259067 0 3 tcp 1040 ------- 1 1.0 3.0 2 3
- 0.260453 0 3 tcp 1040 ------- 1 1.0 3.0 2 3
r 0.290453 0 3 tcp 1040 ------- 1 1.0 3.0 1 2
+ 0.290453 3 0 ack 40 ------- 1 3.0 1.0 1 4
- 0.290453 3 0 ack 40 ------- 1 3.0 1.0 1 4
r 0.296 0 3 tcp 1040 ------- 1 1.0 3.0 2 3
+ 0.296 3 0 ack 40 ------- 1 3.0 1.0 2 5
- 0.296 3 0 ack 40 ------- 1 3.0 1.0 2 5
r 0.320667 3 0 ack 40 ------- 1 3.0 1.0 1 4
+ 0.320667 0 1 ack 40 ------- 1 3.0 1.0 1 4
- 0.320667 0 1 ack 40 ------- 1 3.0 1.0 1 4
r 0.326213 3 0 ack 40 ------- 1 3.0 1.0 2 5
+ 0.326213 0 1 ack 40 ------- 1 3.0 1.0 2 5
- 0.326213 0 1 ack 40 ------- 1 3.0 1.0 2 5
r 0.350827 0 1 ack 40 ------- 1 3.0 1.0 1 4
+ 0.350827 1 0 tcp 1040 ------- 1 1.0 3.0 3 6
- 0.350827 1 0 tcp 1040 ------- 1 1.0 3.0 3 6
+ 0.350827 1 0 tcp 1040 ------- 1 1.0 3.0 4 7
- 0.354987 1 0 tcp 1040 ------- 1 1.0 3.0 4 7
r 0.356373 0 1 ack 40 ------- 1 3.0 1.0 2 5
+ 0.356373 1 0 tcp 1040 ------- 1 1.0 3.0 5 8
+ 0.356373 1 0 tcp 1040 ------- 1 1.0 3.0 6 9
- 0.359147 1 0 tcp 1040 ------- 1 1.0 3.0 5 8
- 0.363307 1 0 tcp 1040 ------- 1 1.0 3.0 6 9
r 0.384987 1 0 tcp 1040 ------- 1 1.0 3.0 3 6
+ 0.384987 0 3 tcp 1040 ------- 1 1.0 3.0 3 6
- 0.384987 0 3 tcp 1040 ------- 1 1.0 3.0 3 6
r 0.389147 1 0 tcp 1040 ------- 1 1.0 3.0 4 7
+ 0.389147 0 3 tcp 1040 ------- 1 1.0 3.0 4 7
- 0.390533 0 3 tcp 1040 ------- 1 1.0 3.0 4 7
r 0.393307 1 0 tcp 1040 ------- 1 1.0 3.0 5 8
+ 0.393307 0 3 tcp 1040 ------- 1 1.0 3.0 5 8
- 0.39608 0 3 tcp 1040 ------- 1 1.0 3.0 5 8
r 0.397467 1 0 tcp 1040 ------- 1 1.0 3.0 6 9
+ 0.397467 0 3 tcp 1040 ------- 1 1.0 3.0 6 9
- 0.401627 0 3 tcp 1040 ------- 1 1.0 3.0 6 9
r 0.420533 0 3 tcp 1040 ------- 1 1.0 3.0 3 6
+ 0.420533 3 0 ack 40 ------- 1 3.0 1.0 3 10
- 0.420533 3 0 ack 40 ------- 1 3.0 1.0 3 10
r 0.42608 0 3 tcp 1040 ------- 1 1.0 3.0 4 7
+ 0.42608 3 0 ack 40 ------- 1 3.0 1.0 4 11
- 0.42608 3 0 ack 40 ------- 1 3.0 1.0 4 11
r 0.431627 0 3 tcp 1040 ------- 1 1.0 3.0 5 8
+ 0.431627 3 0 ack 40 ------- 1 3.0 1.0 5 12
- 0.431627 3 0 ack 40 ------- 1 3.0 1.0 5 12
r 0.437173 0 3 tcp 1040 ------- 1 1.0 3.0 6 9
+ 0.437173 3 0 ack 40 ------- 1 3.0 1.0 6 13
- 0.437173 3 0 ack 40 ------- 1 3.0 1.0 6 13
r 0.450747 3 0 ack 40 ------- 1 3.0 1.0 3 10
+ 0.450747 0 1 ack 40 ------- 1 3.0 1.0 3 10
- 0.450747 0 1 ack 40 ------- 1 3.0 1.0 3 10
r 0.456293 3 0 ack 40 ------- 1 3.0 1.0 4 11
+ 0.456293 0 1 ack 40 ------- 1 3.0 1.0 4 11
- 0.456293 0 1 ack 40 ------- 1 3.0 1.0 4 11
r 0.46184 3 0 ack 40 ------- 1 3.0 1.0 5 12
+ 0.46184 0 1 ack 40 ------- 1 3.0 1.0 5 12
- 0.46184 0 1 ack 40 ------- 1 3.0 1.0 5 12
r 0.467387 3 0 ack 40 ------- 1 3.0 1.0 6 13
+ 0.467387 0 1 ack 40 ------- 1 3.0 1.0 6 13
- 0.467387 0 1 ack 40 ------- 1 3.0 1.0 6 13
r 0.480907 0 1 ack 40 ------- 1 3.0 1.0 3 10
+ 0.480907 1 0 tcp 1040 ------- 1 1.0 3.0 7 14
- 0.480907 1 0 tcp 1040 ------- 1 1.0 3.0 7 14
+ 0.480907 1 0 tcp 1040 ------- 1 1.0 3.0 8 15
- 0.485067 1 0 tcp 1040 ------- 1 1.0 3.0 8 15
r 0.486453 0 1 ack 40 ------- 1 3.0 1.0 4 11
+ 0.486453 1 0 tcp 1040 ------- 1 1.0 3.0 9 16
+ 0.486453 1 0 tcp 1040 ------- 1 1.0 3.0 10 17
- 0.489227 1 0 tcp 1040 ------- 1 1.0 3.0 9 16
r 0.492 0 1 ack 40 ------- 1 3.0 1.0 5 12
+ 0.492 1 0 tcp 1040 ------- 1 1.0 3.0 11 18
+ 0.492 1 0 tcp 1040 ------- 1 1.0 3.0 12 19
- 0.493387 1 0 tcp 1040 ------- 1 1.0 3.0 10 17
r 0.497547 0 1 ack 40 ------- 1 3.0 1.0 6 13
+ 0.497547 1 0 tcp 1040 ------- 1 1.0 3.0 13 20
+ 0.497547 1 0 tcp 1040 ------- 1 1.0 3.0 14 21
- 0.497547 1 0 tcp 1040 ------- 1 1.0 3.0 11 18
- 0.501707 1 0 tcp 1040 ------- 1 1.0 3.0 12 19
- 0.505867 1 0 tcp 1040 ------- 1 1.0 3.0 13 20
- 0.510027 1 0 tcp 1040 ------- 1 1.0 3.0 14 21
r 0.515067 1 0 tcp 1040 ------- 1 1.0 3.0 7 14
+ 0.515067 0 3 tcp 1040 ------- 1 1.0 3.0 7 14
- 0.515067 0 3 tcp 1040 ------- 1 1.0 3.0 7 14
r 0.519227 1 0 tcp 1040 ------- 1 1.0 3.0 8 15
+ 0.519227 0 3 tcp 1040 ------- 1 1.0 3.0 8 15
- 0.520613 0 3 tcp 1040 ------- 1 1.0 3.0 8 15
r 0.523387 1 0 tcp 1040 ------- 1 1.0 3.0 9 16
+ 0.523387 0 3 tcp 1040 ------- 1 1.0 3.0 9 16
- 0.52616 0 3 tcp 1040 ------- 1 1.0 3.0 9 16
r 0.527547 1 0 tcp 1040 ------- 1 1.0 3.0 10 17
+ 0.527547 0 3 tcp 1040 ------- 1 1.0 3.0 10 17
r 0.531707 1 0 tcp 1040 ------- 1 1.0 3.0 11 18
+ 0.531707 0 3 tcp 1040 ------- 1 1.0 3.0 11 18
- 0.531707 0 3 tcp 1040 ------- 1 1.0 3.0 10 17
r 0.535867 1 0 tcp 1040 ------- 1 1.0 3.0 12 19
+ 0.535867 0 3 tcp 1040 ------- 1 1.0 3.0 12 19
- 0.537253 0 3 tcp 1040 ------- 1 1.0 3.0 11 18
r 0.540027 1 0 tcp 1040 ------- 1 1.0 3.0 13 20
+ 0.540027 0 3 tcp 1040 ------- 1 1.0 3.0 13 20
- 0.5428 0 3 tcp 1040 ------- 1 1.0 3.0 12 19
r 0.544187 1 0 tcp 1040 ------- 1 1.0 3.0 14 21
+ 0.544187 0 3 tcp 1040 ------- 1 1.0 3.0 14 21
- 0.548347 0 3 tcp 1040 ------- 1 1.0 3.0 13 20
r 0.550613 0 3 tcp 1040 ------- 1 1.0 3.0 7 14
+ 0.550613 3 0 ack 40 ------- 1 3.0 1.0 7 22
- 0.550613 3 0 ack 40 ------- 1 3.0 1.0 7 22
- 0.553893 0 3 tcp 1040 ------- 1 1.0 3.0 14 21
r 0.55616 0 3 tcp 1040 ------- 1 1.0 3.0 8 15
+ 0.55616 3 0 ack 40 ------- 1 3.0 1.0 8 23
- 0.55616 3 0 ack 40 ------- 1 3.0 1.0 8 23
r 0.561707 0 3 tcp 1040 ------- 1 1.0 3.0 9 16
+ 0.561707 3 0 ack 40 ------- 1 3.0 1.0 9 24
- 0.561707 3 0 ack 40 ------- 1 3.0 1.0 9 24
r 0.567253 0 3 tcp 1040 ------- 1 1.0 3.0 10 17
+ 0.567253 3 0 ack 40 ------- 1 3.0 1.0 10 25
- 0.567253 3 0 ack 40 ------- 1 3.0 1.0 10 25
r 0.5728 0 3 tcp 1040 ------- 1 1.0 3.0 11 18
+ 0.5728 3 0 ack 40 ------- 1 3.0 1.0 11 26
- 0.5728 3 0 ack 40 ------- 1 3.0 1.0 11 26
r 0.578347 0 3 tcp 1040 ------- 1 1.0 3.0 12 19
+ 0.578347 3 0 ack 40 ------- 1 3.0 1.0 12 27
- 0.578347 3 0 ack 40 ------- 1 3.0 1.0 12 27
r 0.580827 3 0 ack 40 ------- 1 3.0 1.0 7 22
+ 0.580827 0 1 ack 40 ------- 1 3.0 1.0 7 22
- 0.580827 0 1 ack 40 ------- 1 3.0 1.0 7 22
r 0.583893 0 3 tcp 1040 ------- 1 1.0 3.0 13 20
+ 0.583893 3 0 ack 40 ------- 1 3.0 1.0 13 28
- 0.583893 3 0 ack 40 ------- 1 3.0 1.0 13 28
r 0.586373 3 0 ack 40 ------- 1 3.0 1.0 8 23
+ 0.586373 0 1 ack 40 ------- 1 3.0 1.0 8 23
- 0.586373 0 1 ack 40 ------- 1 3.0 1.0 8 23
r 0.58944 0 3 tcp 1040 ------- 1 1.0 3.0 14 21
+ 0.58944 3 0 ack 40 ------- 1 3.0 1.0 14 29
- 0.58944 3 0 ack 40 ------- 1 3.0 1.0 14 29
r 0.59192 3 0 ack 40 ------- 1 3.0 1.0 9 24
+ 0.59192 0 1 ack 40 ------- 1 3.0 1.0 9 24
- 0.59192 0 1 ack 40 ------- 1 3.0 1.0 9 24
r 0.597467 3 0 ack 40 ------- 1 3.0 1.0 10 25
+ 0.597467 0 1 ack 40 ------- 1 3.0 1.0 10 25
- 0.597467 0 1 ack 40 ------- 1 3.0 1.0 10 25
r 0.603013 3 0 ack 40 ------- 1 3.0 1.0 11 26
+ 0.603013 0 1 ack 40 ------- 1 3.0 1.0 11 26
- 0.603013 0 1 ack 40 ------- 1 3.0 1.0 11 26
r 0.60856 3 0 ack 40 ------- 1 3.0 1.0 12 27
+ 0.60856 0 1 ack 40 ------- 1 3.0 1.0 12 27
- 0.60856 0 1 ack 40 ------- 1 3.0 1.0 12 27
r 0.610987 0 1 ack 40 ------- 1 3.0 1.0 7 22
+ 0.610987 1 0 tcp 1040 ------- 1 1.0 3.0 15 30
- 0.610987 1 0 tcp 1040 ------- 1 1.0 3.0 15 30
+ 0.610987 1 0 tcp 1040 ------- 1 1.0 3.0 16 31
r 0.614107 3 0 ack 40 ------- 1 3.0 1.0 13 28
+ 0.614107 0 1 ack 40 ------- 1 3.0 1.0 13 28
- 0.614107 0 1 ack 40 ------- 1 3.0 1.0 13 28
- 0.615147 1 0 tcp 1040 ------- 1 1.0 3.0 16 31
r 0.616533 0 1 ack 40 ------- 1 3.0 1.0 8 23
+ 0.616533 1 0 tcp 1040 ------- 1 1.0 3.0 17 32
+ 0.616533 1 0 tcp 1040 ------- 1 1.0 3.0 18 33
- 0.619307 1 0 tcp 1040 ------- 1 1.0 3.0 17 32
r 0.619653 3 0 ack 40 ------- 1 3.0 1.0 14 29
+ 0.619653 0 1 ack 40 ------- 1 3.0 1.0 14 29
- 0.619653 0 1 ack 40 ------- 1 3.0 1.0 14 29
r 0.62208 0 1 ack 40 ------- 1 3.0 1.0 9 24
+ 0.62208 1 0 tcp 1040 ------- 1 1.0 3.0 19 34
+ 0.62208 1 0 tcp 1040 ------- 1 1.0 3.0 20 35
- 0.623467 1 0 tcp 1040 ------- 1 1.0 3.0 18 33
r 0.627627 0 1 ack 40 ------- 1 3.0 1.0 10 25
+ 0.627627 1 0 tcp 1040 ------- 1 1.0 3.0 21 36
+ 0.627627 1 0 tcp 1040 ------- 1 1.0 3.0 22 37
- 0.627627 1 0 tcp 1040 ------- 1 1.0 3.0 19 34
- 0.631787 1 0 tcp 1040 ------- 1 1.0 3.0 20 35
r 0.633173 0 1 ack 40 ------- 1 3.0 1.0 11 26
+ 0.633173 1 0 tcp 1040 ------- 1 1.0 3.0 23 38
+ 0.633173 1 0 tcp 1040 ------- 1 1.0 3.0 24 39
- 0.635947 1 0 tcp 1040 ------- 1 1.0 3.0 21 36
r 0.63872 0 1 ack 40 ------- 1 3.0 1.0 12 27
+ 0.63872 1 0 tcp 1040 ------- 1 1.0 3.0 25 40
+ 0.63872 1 0 tcp 1040 ------- 1 1.0 3.0 26 41
- 0.640107 1 0 tcp 1040 ------- 1 1.0 3.0 22 37
r 0.644267 0 1 ack 40 ------- 1 3.0 1.0 13 28
+ 0.644267 1 0 tcp 1040 ------- 1 1.0 3.0 27 42
+ 0.644267 1 0 tcp 1040 ------- 1 1.0 3.0 28 43
- 0.644267 1 0 tcp 1040 ------- 1 1.0 3.0 23 38
r 0.645147 1 0 tcp 1040 ------- 1 1.0 3.0 15 30
+ 0.645147 0 3 tcp 1040 ------- 1 1.0 3.0 15 30
- 0.645147 0 3 tcp 1040 ------- 1 1.0 3.0 15 30
- 0.648427 1 0 tcp 1040 ------- 1 1.0 3.0 24 39
r 0.649307 1 0 tcp 1040 ------- 1 1.0 3.0 16 31
+ 0.649307 0 3 tcp 1040 ------- 1 1.0 3.0 16 31
r 0.649813 0 1 ack 40 ------- 1 3.0 1.0 14 29
+ 0.649813 1 0 tcp 1040 ------- 1 1.0 3.0 29 44
+ 0.649813 1 0 tcp 1040 ------- 1 1.0 3.0 30 45
- 0.650693 0 3 tcp 1040 ------- 1 1.0 3.0 16 31
- 0.652587 1 0 tcp 1040 ------- 1 1.0 3.0 25 40
r 0.653467 1 0 tcp 1040 ------- 1 1.0 3.0 17 32
+ 0.653467 0 3 tcp 1040 ------- 1 1.0 3.0 17 32
- 0.65624 0 3 tcp 1040 ------- 1 1.0 3.0 17 32
- 0.656747 1 0 tcp 1040 ------- 1 1.0 3.0 26 41
r 0.657627 1 0 tcp 1040 ------- 1 1.0 3.0 18 33
+ 0.657627 0 3 tcp 1040 ------- 1 1.0 3.0 18 33
- 0.660907 1 0 tcp 1040 ------- 1 1.0 3.0 27 42
- 0.661787 0 3 tcp 1040 ------- 1 1.0 3.0 18 33
r 0.661787 1 0 tcp 1040 ------- 1 1.0 3.0 19 34
+ 0.661787 0 3 tcp 1040 ------- 1 1.0 3.0 19 34
- 0.665067 1 0 tcp 1040 ------- 1 1.0 3.0 28 43
r 0.665947 1 0 tcp 1040 ------- 1 1.0 3.0 20 35
+ 0.665947 0 3 tcp 1040 ------- 1 1.0 3.0 20 35
- 0.667333 0 3 tcp 1040 ------- 1 1.0 3.0 19 34
- 0.669227 1 0 tcp 1040 ------- 1 1.0 3.0 29 44
r 0.670107 1 0 tcp 1040 ------- 1 1.0 3.0 21 36
+ 0.670107 0 3 tcp 1040 ------- 1 1.0 3.0 21 36
- 0.67288 0 3 tcp 1040 ------- 1 1.0 3.0 20 35
- 0.673387 1 0 tcp 1040 ------- 1 1.0 3.0 30 45
r 0.674267 1 0 tcp 1040 ------- 1 1.0 3.0 22 37
+ 0.674267 0 3 tcp 1040 ------- 1 1.0 3.0 22 37
- 0.678427 0 3 tcp 1040 ------- 1 1.0 3.0 21 36
r 0.678427 1 0 tcp 1040 ------- 1 1.0 3.0 23 38
+ 0.678427 0 3 tcp 1040 ------- 1 1.0 3.0 23 38
r 0.680693 0 3 tcp 1040 ------- 1 1.0 3.0 15 30
+ 0.680693 3 0 ack 40 ------- 1 3.0 1.0 15 46
- 0.680693 3 0 ack 40 ------- 1 3.0 1.0 15 46
r 0.682587 1 0 tcp 1040 ------- 1 1.0 3.0 24 39
+ 0.682587 0 3 tcp 1040 ------- 1 1.0 3.0 24 39
- 0.683973 0 3 tcp 1040 ------- 1 1.0 3.0 22 37
r 0.68624 0 3 tcp 1040 ------- 1 1.0 3.0 16 31
+ 0.68624 3 0 ack 40 ------- 1 3.0 1.0 16 47
- 0.68624 3 0 ack 40 ------- 1 3.0 1.0 16 47
r 0.686747 1 0 tcp 1040 ------- 1 1.0 3.0 25 40
+ 0.686747 0 3 tcp 1040 ------- 1 1.0 3.0 25 40
- 0.68952 0 3 tcp 1040 ------- 1 1.0 3.0 23 38
r 0.690907 1 0 tcp 1040 ------- 1 1.0 3.0 26 41
+ 0.690907 0 3 tcp 1040 ------- 1 1.0 3.0 26 41
r 0.691787 0 3 tcp 1040 ------- 1 1.0 3.0 17 32
+ 0.691787 3 0 ack 40 ------- 1 3.0 1.0 17 48
- 0.691787 3 0 ack 40 ------- 1 3.0 1.0 17 48
- 0.695067 0 3 tcp 1040 ------- 1 1.0 3.0 24 39
r 0.695067 1 0 tcp 1040 ------- 1 1.0 3.0 27 42
+ 0.695067 0 3 tcp 1040 ------- 1 1.0 3.0 27 42
r 0.697333 0 3 tcp 1040 ------- 1 1.0 3.0 18 33
+ 0.697333 3 0 ack 40 ------- 1 3.0 1.0 18 49
- 0.697333 3 0 ack 40 ------- 1 3.0 1.0 18 49
r 0.699227 1 0 tcp 1040 ------- 1 1.0 3.0 28 43
+ 0.699227 0 3 tcp 1040 ------- 1 1.0 3.0 28 43
- 0.700613 0 3 tcp 1040 ------- 1 1.0 3.0 25 40
r 0.70288 0 3 tcp 1040 ------- 1 1.0 3.0 19 34
+ 0.70288 3 0 ack 40 ------- 1 3.0 1.0 19 50
- 0.70288 3 0 ack 40 ------- 1 3.0 1.0 19 50
r 0.703387 1 0 tcp 1040 ------- 1 1.0 3.0 29 44
+ 0.703387 0 3 tcp 1040 ------- 1 1.0 3.0 29 44
- 0.70616 0 3 tcp 1040 ------- 1 1.0 3.0 26 41
r 0.707547 1 0 tcp 1040 ------- 1 1.0 3.0 30 45
+ 0.707547 0 3 tcp 1040 ------- 1 1.0 3.0 30 45
r 0.708427 0 3 tcp 1040 ------- 1 1.0 3.0 20 35
+ 0.708427 3 0 ack 40 ------- 1 3.0 1.0 20 51
- 0.708427 3 0 ack 40 ------- 1 3.0 1.0 20 51
r 0.710907 3 0 ack 40 ------- 1 3.0 1.0 15 46
+ 0.710907 0 1 ack 40 ------- 1 3.0 1.0 15 46
- 0.710907 0 1 ack 40 ------- 1 3.0 1.0 15 46
- 0.711707 0 3 tcp 1040 ------- 1 1.0 3.0 27 42
r 0.713973 0 3 tcp 1040 ------- 1 1.0 3.0 21 36
+ 0.713973 3 0 ack 40 ------- 1 3.0 1.0 21 52
- 0.713973 3 0 ack 40 ------- 1 3.0 1.0 21 52
r 0.716453 3 0 ack 40 ------- 1 3.0 1.0 16 47
+ 0.716453 0 1 ack 40 ------- 1 3.0 1.0 16 47
- 0.716453 0 1 ack 40 ------- 1 3.0 1.0 16 47
- 0.717253 0 3 tcp 1040 ------- 1 1.0 3.0 28 43
r 0.71952 0 3 tcp 1040 ------- 1 1.0 3.0 22 37
+ 0.71952 3 0 ack 40 ------- 1 3.0 1.0 22 53
- 0.71952 3 0 ack 40 ------- 1 3.0 1.0 22 53
r 0.722 3 0 ack 40 ------- 1 3.0 1.0 17 48
+ 0.722 0 1 ack 40 ------- 1 3.0 1.0 17 48
- 0.722 0 1 ack 40 ------- 1 3.0 1.0 17 48
- 0.7228 0 3 tcp 1040 ------- 1 1.0 3.0 29 44
r 0.725067 0 3 tcp 1040 ------- 1 1.0 3.0 23 38
+ 0.725067 3 0 ack 40 ------- 1 3.0 1.0 23 54
- 0.725067 3 0 ack 40 ------- 1 3.0 1.0 23 54
r 0.727547 3 0 ack 40 ------- 1 3.0 1.0 18 49
+ 0.727547 0 1 ack 40 ------- 1 3.0 1.0 18 49
- 0.727547 0 1 ack 40 ------- 1 3.0 1.0 18 49
- 0.728347 0 3 tcp 1040 ------- 1 1.0 3.0 30 45
r 0.730613 0 3 tcp 1040 ------- 1 1.0 3.0 24 39
+ 0.730613 3 0 ack 40 ------- 1 3.0 1.0 24 55
- 0.730613 3 0 ack 40 ------- 1 3.0 1.0 24 55
r 0.733093 3 0 ack 40 ------- 1 3.0 1.0 19 50
+ 0.733093 0 1 ack 40 ------- 1 3.0 1.0 19 50
- 0.733093 0 1 ack 40 ------- 1 3.0 1.0 19 50
r 0.73616 0 3 tcp 1040 ------- 1 1.0 3.0 25 40
+ 0.73616 3 0 ack 40 ------- 1 3.0 1.0 25 56
- 0.73616 3 0 ack 40 ------- 1 3.0 1.0 25 56
r 0.73864 3 0 ack 40 ------- 1 3.0 1.0 20 51
+ 0.73864 0 1 ack 40 ------- 1 3.0 1.0 20 51
- 0.73864 0 1 ack 40 ------- 1 3.0 1.0 20 51
r 0.741067 0 1 ack 40 ------- 1 3.0 1.0 15 46
+ 0.741067 1 0 tcp 1040 ------- 1 1.0 3.0 31 57
- 0.741067 1 0 tcp 1040 ------- 1 1.0 3.0 31 57
+ 0.741067 1 0 tcp 1040 ------- 1 1.0 3.0 32 58
r 0.741707 0 3 tcp 1040 ------- 1 1.0 3.0 26 41
+ 0.741707 3 0 ack 40 ------- 1 3.0 1.0 26 59
- 0.741707 3 0 ack 40 ------- 1 3.0 1.0 26 59
r 0.744187 3 0 ack 40 ------- 1 3.0 1.0 21 52
+ 0.744187 0 1 ack 40 ------- 1 3.0 1.0 21 52
- 0.744187 0 1 ack 40 ------- 1 3.0 1.0 21 52
- 0.745227 1 0 tcp 1040 ------- 1 1.0 3.0 32 58
r 0.746613 0 1 ack 40 ------- 1 3.0 1.0 16 47
+ 0.746613 1 0 tcp 1040 ------- 1 1.0 3.0 33 60
+ 0.746613 1 0 tcp 1040 ------- 1 1.0 3.0 34 61
r 0.747253 0 3 tcp 1040 ------- 1 1.0 3.0 27 42
+ 0.747253 3 0 ack 40 ------- 1 3.0 1.0 27 62
- 0.747253 3 0 ack 40 ------- 1 3.0 1.0 27 62
- 0.749387 1 0 tcp 1040 ------- 1 1.0 3.0 33 60
r 0.749733 3 0 ack 40 ------- 1 3.0 1.0 22 53
+ 0.749733 0 1 ack 40 ------- 1 3.0 1.0 22 53
- 0.749733 0 1 ack 40 ------- 1 3.0 1.0 22 53
r 0.75216 0 1 ack 40 ------- 1 3.0 1.0 17 48
+ 0.75216 1 0 tcp 1040 ------- 1 1.0 3.0 35 63
+ 0.75216 1 0 tcp 1040 ------- 1 1.0 3.0 36 64
r 0.7528 0 3 tcp 1040 ------- 1 1.0 3.0 28 43
+ 0.7528 3 0 ack 40 ------- 1 3.0 1.0 28 65
- 0.7528 3 0 ack 40 ------- 1 3.0 1.0 28 65
- 0.753547 1 0 tcp 1040 ------- 1 1.0 3.0 34 61
r 0.75528 3 0 ack 40 ------- 1 3.0 1.0 23 54
+ 0.75528 0 1 ack 40 ------- 1 3.0 1.0 23 54
- 0.75528 0 1 ack 40 ------- 1 3.0 1.0 23 54
r 0.757707 0 1 ack 40 ------- 1 3.0 1.0 18 49
+ 0.757707 1 0 tcp 1040 ------- 1 1.0 3.0 37 66
+ 0.757707 1 0 tcp 1040 ------- 1 1.0 3.0 38 67
- 0.757707 1 0 tcp 1040 ------- 1 1.0 3.0 35 63
r 0.758347 0 3 tcp 1040 ------- 1 1.0 3.0 29 44
+ 0.758347 3 0 ack 40 ------- 1 3.0 1.0 29 68
- 0.758347 3 0 ack 40 ------- 1 3.0 1.0 29 68
r 0.760827 3 0 ack 40 ------- 1 3.0 1.0 24 55
+ 0.760827 0 1 ack 40 ------- 1 3.0 1.0 24 55
- 0.760827 0 1 ack 40 ------- 1 3.0 1.0 24 55
- 0.761867 1 0 tcp 1040 ------- 1 1.0 3.0 36 64
r 0.763253 0 1 ack 40 ------- 1 3.0 1.0 19 50
+ 0.763253 1 0 tcp 1040 ------- 1 1.0 3.0 39 69
r 0.763893 0 3 tcp 1040 ------- 1 1.0 3.0 30 45
+ 0.763893 3 0 ack 40 ------- 1 3.0 1.0 30 70
- 0.763893 3 0 ack 40 ------- 1 3.0 1.0 30 70
- 0.766027 1 0 tcp 1040 ------- 1 1.0 3.0 37 66
r 0.766373 3 0 ack 40 ------- 1 3.0 1.0 25 56
+ 0.766373 0 1 ack 40 ------- 1 3.0 1.0 25 56
- 0.766373 0 1 ack 40 ------- 1 3.0 1.0 25 56
r 0.7688 0 1 ack 40 ------- 1 3.0 1.0 20 51
+ 0.7688 1 0 tcp 1040 ------- 1 1.0 3.0 40 71
- 0.770187 1 0 tcp 1040 ------- 1 1.0 3.0 38 67
r 0.77192 3 0 ack 40 ------- 1 3.0 1.0 26 59
+ 0.77192 0 1 ack 40 ------- 1 3.0 1.0 26 59
- 0.77192 0 1 ack 40 ------- 1 3.0 1.0 26 59
r 0.774347 0 1 ack 40 ------- 1 3.0 1.0 21 52
+ 0.774347 1 0 tcp 1040 ------- 1 1.0 3.0 41 72
- 0.774347 1 0 tcp 1040 ------- 1 1.0 3.0 39 69
r 0.775227 1 0 tcp 1040 ------- 1 1.0 3.0 31 57
+ 0.775227 0 3 tcp 1040 ------- 1 1.0 3.0 31 57
- 0.775227 0 3 tcp 1040 ------- 1 1.0 3.0 31 57
r 0.777467 3 0 ack 40 ------- 1 3.0 1.0 27 62
+ 0.777467 0 1 ack 40 ------- 1 3.0 1.0 27 62
- 0.777467 0 1 ack 40 ------- 1 3.0 1.0 27 62
- 0.778507 1 0 tcp 1040 ------- 1 1.0 3.0 40 71
r 0.779387 1 0 tcp 1040 ------- 1 1.0 3.0 32 58
+ 0.779387 0 3 tcp 1040 ------- 1 1.0 3.0 32 58
r 0.779893 0 1 ack 40 ------- 1 3.0 1.0 22 53
+ 0.779893 1 0 tcp 1040 ------- 1 1.0 3.0 42 73
- 0.780773 0 3 tcp 1040 ------- 1 1.0 3.0 32 58
- 0.782667 1 0 tcp 1040 ------- 1 1.0 3.0 41 72
r 0.783013 3 0 ack 40 ------- 1 3.0 1.0 28 65
+ 0.783013 0 1 ack 40 ------- 1 3.0 1.0 28 65
- 0.783013 0 1 ack 40 ------- 1 3.0 1.0 28 65
r 0.783547 1 0 tcp 1040 ------- 1 1.0 3.0 33 60
+ 0.783547 0 3 tcp 1040 ------- 1 1.0 3.0 33 60
r 0.78544 0 1 ack 40 ------- 1 3.0 1.0 23 54
+ 0.78544 1 0 tcp 1040 ------- 1 1.0 3.0 43 74
- 0.78632 0 3 tcp 1040 ------- 1 1.0 3.0 33 60
- 0.786827 1 0 tcp 1040 ------- 1 1.0 3.0 42 73
r 0.787707 1 0 tcp 1040 ------- 1 1.0 3.0 34 61
+ 0.787707 0 3 tcp 1040 ------- 1 1.0 3.0 34 61
r 0.78856 3 0 ack 40 ------- 1 3.0 1.0 29 68
+ 0.78856 0 1 ack 40 ------- 1 3.0 1.0 29 68
- 0.78856 0 1 ack 40 ------- 1 3.0 1.0 29 68
r 0.790987 0 1 ack 40 ------- 1 3.0 1.0 24 55
+ 0.790987 1 0 tcp 1040 ------- 1 1.0 3.0 44 75
- 0.790987 1 0 tcp 1040 ------- 1 1.0 3.0 43 74
- 0.791867 0 3 tcp 1040 ------- 1 1.0 3.0 34 61
r 0.791867 1 0 tcp 1040 ------- 1 1.0 3.0 35 63
+ 0.791867 0 3 tcp 1040 ------- 1 1.0 3.0 35 63
r 0.794107 3 0 ack 40 ------- 1 3.0 1.0 30 70
+ 0.794107 0 1 ack 40 ------- 1 3.0 1.0 30 70
- 0.794107 0 1 ack 40 ------- 1 3.0 1.0 30 70
- 0.795147 1 0 tcp 1040 ------- 1 1.0 3.0 44 75
r 0.796027 1 0 tcp 1040 ------- 1 1.0 3.0 36 64
+ 0.796027 0 3 tcp 1040 ------- 1 1.0 3.0 36 64
r 0.796533 0 1 ack 40 ------- 1 3.0 1.0 25 56
+ 0.796533 1 0 tcp 1040 ------- 1 1.0 3.0 45 76
- 0.797413 0 3 tcp 1040 ------- 1 1.0 3.0 35 63
- 0.799307 1 0 tcp 1040 ------- 1 1.0 3.0 45 76
r 0.800187 1 0 tcp 1040 ------- 1 1.0 3.0 37 66
+ 0.800187 0 3 tcp 1040 ------- 1 1.0 3.0 37 66
r 0.80208 0 1 ack 40 ------- 1 3.0 1.0 26 59
+ 0.80208 1 0 tcp 1040 ------- 1 1.0 3.0 46 77
- 0.80296 0 3 tcp 1040 ------- 1 1.0 3.0 36 64
- 0.803467 1 0 tcp 1040 ------- 1 1.0 3.0 46 77
r 0.804347 1 0 tcp 1040 ------- 1 1.0 3.0 38 67
+ 0.804347 0 3 tcp 1040 ------- 1 1.0 3.0 38 67
r 0.807627 0 1 ack 40 ------- 1 3.0 1.0 27 62
+ 0.807627 1 0 tcp 1040 ------- 1 1.0 3.0 47 78
- 0.807627 1 0 tcp 1040 ------- 1 1.0 3.0 47 78
- 0.808507 0 3 tcp 1040 ------- 1 1.0 3.0 37 66
r 0.808507 1 0 tcp 1040 ------- 1 1.0 3.0 39 69
+ 0.808507 0 3 tcp 1040 ------- 1 1.0 3.0 39 69
r 0.810773 0 3 tcp 1040 ------- 1 1.0 3.0 31 57
+ 0.810773 3 0 ack 40 ------- 1 3.0 1.0 31 79
- 0.810773 3 0 ack 40 ------- 1 3.0 1.0 31 79
r 0.812667 1 0 tcp 1040 ------- 1 1.0 3.0 40 71
+ 0.812667 0 3 tcp 1040 ------- 1 1.0 3.0 40 71
r 0.813173 0 1 ack 40 ------- 1 3.0 1.0 28 65
+ 0.813173 1 0 tcp 1040 ------- 1 1.0 3.0 48 80
- 0.813173 1 0 tcp 1040 ------- 1 1.0 3.0 48 80
- 0.814053 0 3 tcp 1040 ------- 1 1.0 3.0 38 67
r 0.81632 0 3 tcp 1040 ------- 1 1.0 3.0 32 58
+ 0.81632 3 0 ack 40 ------- 1 3.0 1.0 32 81
- 0.81632 3 0 ack 40 ------- 1 3.0 1.0 32 81
r 0.816827 1 0 tcp 1040 ------- 1 1.0 3.0 41 72
+ 0.816827 0 3 tcp 1040 ------- 1 1.0 3.0 41 72
r 0.81872 0 1 ack 40 ------- 1 3.0 1.0 29 68
+ 0.81872 1 0 tcp 1040 ------- 1 1.0 3.0 49 82
- 0.81872 1 0 tcp 1040 ------- 1 1.0 3.0 49 82
- 0.8196 0 3 tcp 1040 ------- 1 1.0 3.0 39 69
r 0.820987 1 0 tcp 1040 ------- 1 1.0 3.0 42 73
+ 0.820987 0 3 tcp 1040 ------- 1 1.0 3.0 42 73
r 0.821867 0 3 tcp 1040 ------- 1 1.0 3.0 33 60
+ 0.821867 3 0 ack 40 ------- 1 3.0 1.0 33 83
- 0.821867 3 0 ack 40 ------- 1 3.0 1.0 33 83
r 0.824267 0 1 ack 40 ------- 1 3.0 1.0 30 70
+ 0.824267 1 0 tcp 1040 ------- 1 1.0 3.0 50 84
- 0.824267 1 0 tcp 1040 ------- 1 1.0 3.0 50 84
- 0.825147 0 3 tcp 1040 ------- 1 1.0 3.0 40 71
r 0.825147 1 0 tcp 1040 ------- 1 1.0 3.0 43 74
+ 0.825147 0 3 tcp 1040 ------- 1 1.0 3.0 43 74
r 0.827413 0 3 tcp 1040 ------- 1 1.0 3.0 34 61
+ 0.827413 3 0 ack 40 ------- 1 3.0 1.0 34 85
- 0.827413 3 0 ack 40 ------- 1 3.0 1.0 34 85
r 0.829307 1 0 tcp 1040 ------- 1 1.0 3.0 44 75
+ 0.829307 0 3 tcp 1040 ------- 1 1.0 3.0 44 75
- 0.830693 0 3 tcp 1040 ------- 1 1.0 3.0 41 72
r 0.83296 0 3 tcp 1040 ------- 1 1.0 3.0 35 63
+ 0.83296 3 0 ack 40 ------- 1 3.0 1.0 35 86
- 0.83296 3 0 ack 40 ------- 1 3.0 1.0 35 86
r 0.833467 1 0 tcp 1040 ------- 1 1.0 3.0 45 76
+ 0.833467 0 3 tcp 1040 ------- 1 1.0 3.0 45 76
- 0.83624 0 3 tcp 1040 ------- 1 1.0 3.0 42 73
r 0.837627 1 0 tcp 1040 ------- 1 1.0 3.0 46 77
+ 0.837627 0 3 tcp 1040 ------- 1 1.0 3.0 46 77
r 0.838507 0 3 tcp 1040 ------- 1 1.0 3.0 36 64
+ 0.838507 3 0 ack 40 ------- 1 3.0 1.0 36 87
- 0.838507 3 0 ack 40 ------- 1 3.0 1.0 36 87
r 0.840987 3 0 ack 40 ------- 1 3.0 1.0 31 79
+ 0.840987 0 1 ack 40 ------- 1 3.0 1.0 31 79
- 0.840987 0 1 ack 40 ------- 1 3.0 1.0 31 79
- 0.841787 0 3 tcp 1040 ------- 1 1.0 3.0 43 74
r 0.841787 1 0 tcp 1040 ------- 1 1.0 3.0 47 78
+ 0.841787 0 3 tcp 1040 ------- 1 1.0 3.0 47 78
r 0.844053 0 3 tcp 1040 ------- 1 1.0 3.0 37 66
+ 0.844053 3 0 ack 40 ------- 1 3.0 1.0 37 88
- 0.844053 3 0 ack 40 ------- 1 3.0 1.0 37 88
r 0.846533 3 0 ack 40 ------- 1 3.0 1.0 32 81
+ 0.846533 0 1 ack 40 ------- 1 3.0 1.0 32 81
- 0.846533 0 1 ack 40 ------- 1 3.0 1.0 32 81
r 0.847333 1 0 tcp 1040 ------- 1 1.0 3.0 48 80
+ 0.847333 0 3 tcp 1040 ------- 1 1.0 3.0 48 80
d 0.847333 0 3 tcp 1040 ------- 1 1.0 3.0 48 80
- 0.847333 0 3 tcp 1040 ------- 1 1.0 3.0 44 75
r 0.8496 0 3 tcp 1040 ------- 1 1.0 3.0 38 67
+ 0.8496 3 0 ack 40 ------- 1 3.0 1.0 38 89
- 0.8496 3 0 ack 40 ------- 1 3.0 1.0 38 89
r 0.85208 3 0 ack 40 ------- 1 3.0 1.0 33 83
+ 0.85208 0 1 ack 40 ------- 1 3.0 1.0 33 83
- 0.85208 0 1 ack 40 ------- 1 3.0 1.0 33 83
r 0.85288 1 0 tcp 1040 ------- 1 1.0 3.0 49 82
+ 0.85288 0 3 tcp 1040 ------- 1 1.0 3.0 49 82
- 0.85288 0 3 tcp 1040 ------- 1 1.0 3.0 45 76
r 0.855147 0 3 tcp 1040 ------- 1 1.0 3.0 39 69
+ 0.855147 3 0 ack 40 ------- 1 3.0 1.0 39 90
- 0.855147 3 0 ack 40 ------- 1 3.0 1.0 39 90
r 0.857627 3 0 ack 40 ------- 1 3.0 1.0 34 85
+ 0.857627 0 1 ack 40 ------- 1 3.0 1.0 34 85
- 0.857627 0 1 ack 40 ------- 1 3.0 1.0 34 85
r 0.858427 1 0 tcp 1040 ------- 1 1.0 3.0 50 84
+ 0.858427 0 3 tcp 1040 ------- 1 1.0 3.0 50 84
- 0.858427 0 3 tcp 1040 ------- 1 1.0 3.0 46 77
r 0.860693 0 3 tcp 1040 ------- 1 1.0 3.0 40 71
+ 0.860693 3 0 ack 40 ------- 1 3.0 1.0 40 91
- 0.860693 3 0 ack 40 ------- 1 3.0 1.0 40 91
r 0.863173 3 0 ack 40 ------- 1 3.0 1.0 35 86
+ 0.863173 0 1 ack 40 ------- 1 3.0 1.0 35 86
- 0.863173 0 1 ack 40 ------- 1 3.0 1.0 35 86
- 0.863973 0 3 tcp 1040 ------- 1 1.0 3.0 47 78
r 0.86624 0 3 tcp 1040 ------- 1 1.0 3.0 41 72
+ 0.86624 3 0 ack 40 ------- 1 3.0 1.0 41 92
- 0.86624 3 0 ack 40 ------- 1 3.0 1.0 41 92
r 0.86872 3 0 ack 40 ------- 1 3.0 1.0 36 87
+ 0.86872 0 1 ack 40 ------- 1 3.0 1.0 36 87
- 0.86872 0 1 ack 40 ------- 1 3.0 1.0 36 87
- 0.86952 0 3 tcp 1040 ------- 1 1.0 3.0 49 82
r 0.871147 0 1 ack 40 ------- 1 3.0 1.0 31 79
+ 0.871147 1 0 tcp 1040 ------- 1 1.0 3.0 51 93
- 0.871147 1 0 tcp 1040 ------- 1 1.0 3.0 51 93
r 0.871787 0 3 tcp 1040 ------- 1 1.0 3.0 42 73
+ 0.871787 3 0 ack 40 ------- 1 3.0 1.0 42 94
- 0.871787 3 0 ack 40 ------- 1 3.0 1.0 42 94
r 0.874267 3 0 ack 40 ------- 1 3.0 1.0 37 88
+ 0.874267 0 1 ack 40 ------- 1 3.0 1.0 37 88
- 0.874267 0 1 ack 40 ------- 1 3.0 1.0 37 88
- 0.875067 0 3 tcp 1040 ------- 1 1.0 3.0 50 84
r 0.876693 0 1 ack 40 ------- 1 3.0 1.0 32 81
+ 0.876693 1 0 tcp 1040 ------- 1 1.0 3.0 52 95
- 0.876693 1 0 tcp 1040 ------- 1 1.0 3.0 52 95
r 0.877333 0 3 tcp 1040 ------- 1 1.0 3.0 43 74
+ 0.877333 3 0 ack 40 ------- 1 3.0 1.0 43 96
- 0.877333 3 0 ack 40 ------- 1 3.0 1.0 43 96
r 0.879813 3 0 ack 40 ------- 1 3.0 1.0 38 89
+ 0.879813 0 1 ack 40 ------- 1 3.0 1.0 38 89
- 0.879813 0 1 ack 40 ------- 1 3.0 1.0 38 89
r 0.88224 0 1 ack 40 ------- 1 3.0 1.0 33 83
+ 0.88224 1 0 tcp 1040 ------- 1 1.0 3.0 53 97
- 0.88224 1 0 tcp 1040 ------- 1 1.0 3.0 53 97
r 0.88288 0 3 tcp 1040 ------- 1 1.0 3.0 44 75
+ 0.88288 3 0 ack 40 ------- 1 3.0 1.0 44 98
- 0.88288 3 0 ack 40 ------- 1 3.0 1.0 44 98
r 0.88536 3 0 ack 40 ------- 1 3.0 1.0 39 90
+ 0.88536 0 1 ack 40 ------- 1 3.0 1.0 39 90
- 0.88536 0 1 ack 40 ------- 1 3.0 1.0 39 90
r 0.887787 0 1 ack 40 ------- 1 3.0 1.0 34 85
+ 0.887787 1 0 tcp 1040 ------- 1 1.0 3.0 54 99
- 0.887787 1 0 tcp 1040 ------- 1 1.0 3.0 54 99
r 0.888427 0 3 tcp 1040 ------- 1 1.0 3.0 45 76
+ 0.888427 3 0 ack 40 ------- 1 3.0 1.0 45 100
- 0.888427 3 0 ack 40 ------- 1 3.0 1.0 45 100
r 0.890907 3 0 ack 40 ------- 1 3.0 1.0 40 91
+ 0.890907 0 1 ack 40 ------- 1 3.0 1.0 40 91
- 0.890907 0 1 ack 40 ------- 1 3.0 1.0 40 91
r 0.893333 0 1 ack 40 ------- 1 3.0 1.0 35 86
+ 0.893333 1 0 tcp 1040 ------- 1 1.0 3.0 55 101
- 0.893333 1 0 tcp 1040 ------- 1 1.0 3.0 55 101
r 0.893973 0 3 tcp 1040 ------- 1 1.0 3.0 46 77
+ 0.893973 3 0 ack 40 ------- 1 3.0 1.0 46 102
- 0.893973 3 0 ack 40 ------- 1 3.0 1.0 46 102
r 0.896453 3 0 ack 40 ------- 1 3.0 1.0 41 92
+ 0.896453 0 1 ack 40 ------- 1 3.0 1.0 41 92
- 0.896453 0 1 ack 40 ------- 1 3.0 1.0 41 92
r 0.89888 0 1 ack 40 ------- 1 3.0 1.0 36 87
+ 0.89888 1 0 tcp 1040 ------- 1 1.0 3.0 56 103
- 0.89888 1 0 tcp 1040 ------- 1 1.0 3.0 56 103
r 0.89952 0 3 tcp 1040 ------- 1 1.0 3.0 47 78
+ 0.89952 3 0 ack 40 ------- 1 3.0 1.0 47 104
- 0.89952 3 0 ack 40 ------- 1 3.0 1.0 47 104
r 0.902 3 0 ack 40 ------- 1 3.0 1.0 42 94
+ 0.902 0 1 ack 40 ------- 1 3.0 1.0 42 94
- 0.902 0 1 ack 40 ------- 1 3.0 1.0 42 94
r 0.904427 0 1 ack 40 ------- 1 3.0 1.0 37 88
+ 0.904427 1 0 tcp 1040 ------- 1 1.0 3.0 57 105
- 0.904427 1 0 tcp 1040 ------- 1 1.0 3.0 57 105
r 0.905067 0 3 tcp 1040 ------- 1 1.0 3.0 49 82
+ 0.905067 3 0 ack 40 ------- 1 3.0 1.0 47 106
- 0.905067 3 0 ack 40 ------- 1 3.0 1.0 47 106
r 0.905307 1 0 tcp 1040 ------- 1 1.0 3.0 51 93
+ 0.905307 0 3 tcp 1040 ------- 1 1.0 3.0 51 93
- 0.905307 0 3 tcp 1040 ------- 1 1.0 3.0 51 93
r 0.907547 3 0 ack 40 ------- 1 3.0 1.0 43 96
+ 0.907547 0 1 ack 40 ------- 1 3.0 1.0 43 96
- 0.907547 0 1 ack 40 ------- 1 3.0 1.0 43 96
r 0.909973 0 1 ack 40 ------- 1 3.0 1.0 38 89
+ 0.909973 1 0 tcp 1040 ------- 1 1.0 3.0 58 107
- 0.909973 1 0 tcp 1040 ------- 1 1.0 3.0 58 107
r 0.910613 0 3 tcp 1040 ------- 1 1.0 3.0 50 84
+ 0.910613 3 0 ack 40 ------- 1 3.0 1.0 47 108
- 0.910613 3 0 ack 40 ------- 1 3.0 1.0 47 108
r 0.910853 1 0 tcp 1040 ------- 1 1.0 3.0 52 95
+ 0.910853 0 3 tcp 1040 ------- 1 1.0 3.0 52 95
- 0.910853 0 3 tcp 1040 ------- 1 1.0 3.0 52 95
r 0.913093 3 0 ack 40 ------- 1 3.0 1.0 44 98
+ 0.913093 0 1 ack 40 ------- 1 3.0 1.0 44 98
- 0.913093 0 1 ack 40 ------- 1 3.0 1.0 44 98
r 0.91552 0 1 ack 40 ------- 1 3.0 1.0 39 90
+ 0.91552 1 0 tcp 1040 ------- 1 1.0 3.0 59 109
- 0.91552 1 0 tcp 1040 ------- 1 1.0 3.0 59 109
r 0.9164 1 0 tcp 1040 ------- 1 1.0 3.0 53 97
+ 0.9164 0 3 tcp 1040 ------- 1 1.0 3.0 53 97
- 0.9164 0 3 tcp 1040 ------- 1 1.0 3.0 53 97
r 0.91864 3 0 ack 40 ------- 1 3.0 1.0 45 100
+ 0.91864 0 1 ack 40 ------- 1 3.0 1.0 45 100
- 0.91864 0 1 ack 40 ------- 1 3.0 1.0 45 100
r 0.921067 0 1 ack 40 ------- 1 3.0 1.0 40 91
+ 0.921067 1 0 tcp 1040 ------- 1 1.0 3.0 60 110
- 0.921067 1 0 tcp 1040 ------- 1 1.0 3.0 60 110
r 0.921947 1 0 tcp 1040 ------- 1 1.0 3.0 54 99
+ 0.921947 0 3 tcp 1040 ------- 1 1.0 3.0 54 99
- 0.921947 0 3 tcp 1040 ------- 1 1.0 3.0 54 99
r 0.924187 3 0 ack 40 ------- 1 3.0 1.0 46 102
+ 0.924187 0 1 ack 40 ------- 1 3.0 1.0 46 102
- 0.924187 0 1 ack 40 ------- 1 3.0 1.0 46 102
r 0.926613 0 1 ack 40 ------- 1 3.0 1.0 41 92
+ 0.926613 1 0 tcp 1040 ------- 1 1.0 3.0 61 111
- 0.926613 1 0 tcp 1040 ------- 1 1.0 3.0 61 111
r 0.927493 1 0 tcp 1040 ------- 1 1.0 3.0 55 101
+ 0.927493 0 3 tcp 1040 ------- 1 1.0 3.0 55 101
- 0.927493 0 3 tcp 1040 ------- 1 1.0 3.0 55 101
r 0.929733 3 0 ack 40 ------- 1 3.0 1.0 47 104
+ 0.929733 0 1 ack 40 ------- 1 3.0 1.0 47 104
- 0.929733 0 1 ack 40 ------- 1 3.0 1.0 47 104
r 0.93216 0 1 ack 40 ------- 1 3.0 1.0 42 94
+ 0.93216 1 0 tcp 1040 ------- 1 1.0 3.0 62 112
- 0.93216 1 0 tcp 1040 ------- 1 1.0 3.0 62 112
r 0.93304 1 0 tcp 1040 ------- 1 1.0 3.0 56 103
+ 0.93304 0 3 tcp 1040 ------- 1 1.0 3.0 56 103
- 0.93304 0 3 tcp 1040 ------- 1 1.0 3.0 56 103
r 0.93528 3 0 ack 40 ------- 1 3.0 1.0 47 106
+ 0.93528 0 1 ack 40 ------- 1 3.0 1.0 47 106
- 0.93528 0 1 ack 40 ------- 1 3.0 1.0 47 106
r 0.937707 0 1 ack 40 ------- 1 3.0 1.0 43 96
+ 0.937707 1 0 tcp 1040 ------- 1 1.0 3.0 63 113
- 0.937707 1 0 tcp 1040 ------- 1 1.0 3.0 63 113
r 0.938587 1 0 tcp 1040 ------- 1 1.0 3.0 57 105
+ 0.938587 0 3 tcp 1040 ------- 1 1.0 3.0 57 105
- 0.938587 0 3 tcp 1040 ------- 1 1.0 3.0 57 105
r 0.940827 3 0 ack 40 ------- 1 3.0 1.0 47 108