V -t * -v 1.0a5 -a 0
A -t * -n 1 -p 0 -o 0x7fffffff -c 30 -a 1
A -t * -h 1 -m 1073741823 -s 0
c -t * -i 1 -n Red
c -t * -i 2 -n Blue
n -t * -a 4 -s 4 -S UP -v circle -c black -i black
n -t * -a 0 -s 0 -S UP -v circle -c black -i black
n -t * -a 5 -s 5 -S UP -v circle -c black -i black
n -t * -a 1 -s 1 -S UP -v circle -c black -i black
n -t * -a 2 -s 2 -S UP -v circle -c black -i black
n -t * -a 3 -s 3 -S UP -v circle -c black -i black
l -t * -s 0 -d 1 -S UP -r 2000000 -D 0.029999999999999999 -c black
l -t * -s 0 -d 2 -S UP -r 2000000 -D 0.029999999999999999 -c black
l -t * -s 0 -d 3 -S UP -r 1500000 -D 0.029999999999999999 -c black
l -t * -s 0 -d 4 -S UP -r 2000000 -D 0.029999999999999999 -c black
l -t * -s 0 -d 5 -S UP -r 2000000 -D 0.029999999999999999 -c black
+ -t 0.1 -s 1 -d 0 -p tcp -e 40 -c 1 -i 0 -a 1 -x {1.0 3.0 0 ------- null}
- -t 0.1 -s 1 -d 0 -p tcp -e 40 -c 1 -i 0 -a 1 -x {1.0 3.0 0 ------- null}
h -t 0.1 -s 1 -d 0 -p tcp -e 40 -c 1 -i 0 -a 1 -x {1.0 3.0 -1 ------- null}
r -t 0.13016 -s 1 -d 0 -p tcp -e 40 -c 1 -i 0 -a 1 -x {1.0 3.0 0 ------- null}
+ -t 0.13016 -s 0 -d 3 -p tcp -e 40 -c 1 -i 0 -a 1 -x {1.0 3.0 0 ------- null}
- -t 0.13016 -s 0 -d 3 -p tcp -e 40 -c 1 -i 0 -a 1 -x {1.0 3.0 0 ------- null}
h -t 0.13016 -s 0 -d 3 -p tcp -e 40 -c 1 -i 0 -a 1 -x {1.0 3.0 -1 ------- null}
r -t 0.160373333333333 -s 0 -d 3 -p tcp -e 40 -c 1 -i 0 -a 1 -x {1.0 3.0 0 ------- null}
+ -t 0.160373333333333 -s 3 -d 0 -p ack -e 40 -c 1 -i 1 -a 1 -x {3.0 1.0 0 ------- null}
- -t 0.160373333333333 -s 3 -d 0 -p ack -e 40 -c 1 -i 1 -a 1 -x {3.0 1.0 0 ------- null}
h -t 0.160373333333333 -s 3 -d 0 -p ack -e 40 -c 1 -i 1 -a 1 -x {3.0 1.0 -1 ------- null}
r -t 0.190586666666667 -s 3 -d 0 -p ack -e 40 -c 1 -i 1 -a 1 -x {3.0 1.0 0 ------- null}
+ -t 0.190586666666667 -s 0 -d 1 -p ack -e 40 -c 1 -i 1 -a 1 -x {3.0 1.0 0 ------- null}
- -t 0.190586666666667 -s 0 -d 1 -p ack -e 40 -c 1 -i 1 -a 1 -x {3.0 1.0 0 ------- null}
h -t 0.190586666666667 -s 0 -d 1 -p ack -e 40 -c 1 -i 1 -a 1 -x {3.0 1.0 -1 ------- null}
r -t 0.220746666666667 -s 0 -d 1 -p ack -e 40 -c 1 -i 1 -a 1 -x {3.0 1.0 0 ------- null}
+ -t 0.220746666666667 -s 1 -d 0 -p tcp -e 1040 -c 1 -i 2 -a 1 -x {1.0 3.0 1 ------- null}
- -t 0.220746666666667 -s 1 -d 0 -p tcp -e 1040 -c 1 -i 2 -a 1 -x {1.0 3.0 1 ------- null}
h -t 0.220746666666667 -s 1 -d 0 -p tcp -e 1040 -c 1 -i 2 -a 1 -x {1.0 3.0 -1 ------- null}
+ -t 0.220746666666667 -s 1 -d 0 -p tcp -e 1040 -c 1 -i 3 -a 1 -x {1.0 3.0 2 ------- null}
- -t 0.224906666666667 -s 1 -d 0 -p tcp -e 1040 -c 1 -i 3 -a 1 -x {1.0 3.0 2 ------- null}
h -t 0.224906666666667 -s 1 -d 0 -p tcp -e 1040 -c 1 -i 3 -a 1 -x {1.0 3.0 -1 ------- null}
r -t 0.254906666666667 -s 1 -d 0 -p tcp -e 1040 -c 1 -i 2 -a 1 -x {1.0 3.0 1 ------- null}
+ -t 0.254906666666667 -s 0 -d 3 -p tcp -e 1040 -c 1 -i 2 -a 1 -x {1.0 3.0 1 ------- null}
- -t 0.254906666666667 -s 0 -d 3 -p tcp -e 1040 -c 1 -i 2 -a 1 -x {1.0 3.0 1 ------- null}
h -t 0.254906666666667 -s 0 -d 3 -p tcp -e 1040 -c 1 -i 2 -a 1 -x {1.0 3.0 -1 ------- null}
r -t 0.259066666666667 -s 1 -d 0 -p tcp -e 1040 -c 1 -i 3 -a 1 -x {1.0 3.0 2 ------- null}
+ -t 0.259066666666667 -s 0 -d 3 -p tcp -e 1040 -c 1 -i 3 -a 1 -x {1.0 3.0 2 ------- null}
- -t 0.260453333333333 -s 0 -d 3 -p tcp -e 1040 -c 1 -i 3 -a 1 -x {1.0 3.0 2 ------- null}
h -t 0.260453333333333 -s 0 -d 3 -p tcp -e 1040 -c 1 -i 3 -a 1 -x {1.0 3.0 -1 ------- null}
r -t 0.290453333333333 -s 0 -d 3 -p tcp -e 1040 -c 1 -i 2 -a 1 -x {1.0 3.0 1 ------- null}
+ -t 0.290453333333333 -s 3 -d 0 -p ack -e 40 -c 1 -i 4 -a 1 -x {3.0 1.0 1 ------- null}
- -t 0.290453333333333 -s 3 -d 0 -p ack -e 40 -c 1 -i 4 -a 1 -x {3.0 1.0 1 ------- null}
h -t 0.290453333333333 -s 3 -d 0 -p ack -e 40 -c 1 -i 4 -a 1 -x {3.0 1.0 -1 ------- null}
r -t 0.296 -s 0 -d 3 -p tcp -e 1040 -c 1 -i 3 -a 1 -x {1.0 3.0 2 ------- null}
+ -t 0.296 -s 3 -d 0 -p ack -e 40 -c 1 -i 5 -a 1 -x {3.0 1.0 2 ------- null}
- -t 0.296 -s 3 -d 0 -p ack -e 40 -c 1 -i 5 -a 1 -x {3.0 1.0 2 ------- null}
h -t 0.296 -s 3 -d 0 -p ack -e 40 -c 1 -i 5 -a 1 -x {3.0 1.0 -1 ------- null}
r -t 0.320666666666667 -s 3 -d 0 -p ack -e 40 -c 1 -i 4 -a 1 -x {3.0 1.0 1 ------- null}
+ -t 0.320666666666667 -s 0 -d 1 -p ack -e 40 -c 1 -i 4 -a 1 -x {3.0 1.0 1 ------- null}
- -t 0.320666666666667 -s 0 -d 1 -p ack -e 40 -c 1 -i 4 -a 1 -x {3.0 1.0 1 ------- null}
h -t 0.320666666666667 -s 0 -d 1 -p ack -e 40 -c 1 -i 4 -a 1 -x {3.0 1.0 -1 ------- null}
r -t 0.326213333333333 -s 3 -d 0 -p ack -e 40 -c 1 -i 5 -a 1 -x {3.0 1.0 2 ------- null}
+ -t 0.326213333333333 -s 0 -d 1 -p ack -e 40 -c 1 -i 5 -a 1 -x {3.0 1.0 2 ------- null}
- -t 0.326213333333333 -s 0 -d 1 -p ack -e 40 -c 1 -i 5 -a 1 -x {3.0 1.0 2 ------- null}
h -t 0.326213333333333 -s 0 -d 1 -p ack -e 40 -c 1 -i 5 -a 1 -x {3.0 1.0 -1 ------- null}
r -t 0.350826666666667 -s 0 -d 1 -p ack -e 40 -c 1 -i 4 -a 1 -x {3.0 1.0 1 ------- null}
+ -t 0.350826666666667 -s 1 -d 0 -p tcp -e 1040 -c 1 -i 6 -a 1 -x {1.0 3.0 3 ------- null}
- -t 0.350826666666667 -s 1 -d 0 -p tcp -e 1040 -c 1 -i 6 -a 1 -x {1.0 3.0 3 ------- null}
h -t 0.350826666666667 -s 1 -d 0 -p tcp -e 1040 -c 1 -i 6 -a 1 -x {1.0 3.0 -1 ------- null}
+ -t 0.350826666666667 -s 1 -d 0 -p tcp -e 1040 -c 1 -i 7 -a 1 -x {1.0 3.0 4 ------- null}
- -t 0.354986666666667 -s 1 -d 0 -p tcp -e 1040 -c 1 -i 7 -a 1 -x {1.0 3.0 4 ------- null}
h -t 0.354986666666667 -s 1 -d 0 -p tcp -e 1040 -c 1 -i 7 -a 1 -x {1.0 3.0 -1 ------- null}
r -t 0.356373333333333 -s 0 -d 1 -p ack -e 40 -c 1 -i 5 -a 1 -x {3.0 1.0 2 ------- null}
+ -t 0.356373333333333 -s 1 -d 0 -p tcp -e 1040 -c 1 -i 8 -a 1 -x {1.0 3.0 5 ------- null}
+ -t 0.356373333333333 -s 1 -d 0 -p tcp -e 1040 -c 1 -i 9 -a 1 -x {1.0 3.0 6 ------- null}
- -t 0.359146666666667 -s 1 -d 0 -p tcp -e 1040 -c 1 -i 8 -a 1 -x {1.0 3.0 5 ------- null}
h -t 0.359146666666667 -s 1 -d 0 -p tcp -e 1040 -c 1 -i 8 -a 1 -x {1.0 3.0 -1 ------- null}
- -t 0.363306666666667 -s 1 -d 0 -p tcp -e 1040 -c 1 -i 9 -a 1 -x {1.0 3.0 6 ------- null}
h -t 0.363306666666667 -s 1 -d 0 -p tcp -e 1040 -c 1 -i 9 -a 1 -x {1.0 3.0 -1 ------- null}
r -t 0.384986666666667 -s 1 -d 0 -p tcp -e 1040 -c 1 -i 6 -a 1 -x {1.0 3.0 3 ------- null}
+ -t 0.384986666666667 -s 0 -d 3 -p tcp -e 1040 -c 1 -i 6 -a 1 -x {1.0 3.0 3 ------- null}
- -t 0.384986666666667 -s 0 -d 3 -p tcp -e 1040 -c 1 -i 6 -a 1 -x {1.0 3.0 3 ------- null}
h -t 0.384986666666667 -s 0 -d 3 -p tcp -e 1040 -c 1 -i 6 -a 1 -x {1.0 3.0 -1 ------- null}
r -t 0.389146666666667 -s 1 -d 0 -p tcp -e 1040 -c 1 -i 7 -a 1 -x {1.0 3.0 4 ------- null}
+ -t 0.389146666666667 -s 0 -d 3 -p tcp -e 1040 -c 1 -i 7 -a 1 -x {1.0 3.0 4 ------- null}
- -t 0.390533333333333 -s 0 -d 3 -p tcp -e 1040 -c 1 -i 7 -a 1 -x {1.0 3.0 4 ------- null}
h -t 0.390533333333333 -s 0 -d 3 -p tcp -e 1040 -c 1 -i 7 -a 1 -x {1.0 3.0 -1 ------- null}
r -t 0.393306666666667 -s 1 -d 0 -p tcp -e 1040 -c 1 -i 8 -a 1 -x {1.0 3.0 5 ------- null}
+ -t 0.393306666666667 -s 0 -d 3 -p tcp -e 1040 -c 1 -i 8 -a 1 -x {1.0 3.0 5 ------- null}
- -t 0.39608 -s 0 -d 3 -p tcp -e 1040 -c 1 -i 8 -a 1 -x {1.0 3.0 5 ------- null}
h -t 0.39608 -s 0 -d 3 -p tcp -e 1040 -c 1 -i 8 -a 1 -x {1.0 3.0 -1 ------- null}
r -t 0.397466666666667 -s 1 -d 0 -p tcp -e 1040 -c 1 -i 9 -a 1 -x {1.0 3.0 6 ------- null}
+ -t 0.397466666666667 -s 0 -d 3 -p tcp -e 1040 -c 1 -i 9 -a 1 -x {1.0 3.0 6 ------- null}
- -t 0.401626666666667 -s 0 -d 3 -p tcp -e 1040 -c 1 -i 9 -a 1 -x {1.0 3.0 6 ------- null}
h -t 0.401626666666667 -s 0 -d 3 -p tcp -e 1040 -c 1 -i 9 -a 1 -x {1.0 3.0 -1 ------- null}
r -t 0.420533333333333 -s 0 -d 3 -p tcp -e 1040 -c 1 -i 6 -a 1 -x {1.0 3.0 3 ------- null}
+ -t 0.420533333333333 -s 3 -d 0 -p ack -e 40 -c 1 -i 10 -a 1 -x {3.0 1.0 3 ------- null}
- -t 0.420533333333333 -s 3 -d 0 -p ack -e 40 -c 1 -i 10 -a 1 -x {3.0 1.0 3 ------- null}
h -t 0.420533333333333 -s 3 -d 0 -p ack -e 40 -c 1 -i 10 -a 1 -x {3.0 1.0 -1 ------- null}
r -t 0.42608 -s 0 -d 3 -p tcp -e 1040 -c 1 -i 7 -a 1 -x {1.0 3.0 4 ------- null}
+ -t 0.42608 -s 3 -d 0 -p ack -e 40 -c 1 -i 11 -a 1 -x {3.0 1.0 4 ------- null}
- -t 0.42608 -s 3 -d 0 -p ack -e 40 -c 1 -i 11 -a 1 -x {3.0 1.0 4 ------- null}
h -t 0.42608 -s 3 -d 0 -p ack -e 40 -c 1 -i 11 -a 1 -x {3.0 1.0 -1 ------- null}
r -t 0.431626666666667 -s 0 -d 3 -p tcp -e 1040 -c 1 -i 8 -a 1 -x {1.0 3.0 5 ------- null}
+ -t 0.431626666666667 -s 3 -d 0 -p ack -e 40 -c 1 -i 12 -a 1 -x {3.0 1.0 5 ------- null}
- -t 0.431626666666667 -s 3 -d 0 -p ack -e 40 -c 1 -i 12 -a 1 -x {3.0 1.0 5 ------- null}
h -t 0.431626666666667 -s 3 -d 0 -p ack -e 40 -c 1 -i 12 -a 1 -x {3.0 1.0 -1 ------- null}
r -t 0.437173333333333 -s 0 -d 3 -p tcp -e 1040 -c 1 -i 9 -a 1 -x {1.0 3.0 6 ------- null}
+ -t 0.437173333333333 -s 3 -d 0 -p ack -e 40 -c 1 -i 13 -a 1 -x {3.0 1.0 6 ------- null}
- -t 0.437173333333333 -s 3 -d 0 -p ack -e 40 -c 1 -i 13 -a 1 -x {3.0 1.0 6 ------- null}
h -t 0.437173333333333 -s 3 -d 0 -p ack -e 40 -c 1 -i 13 -a 1 -x {3.0 1.0 -1 ------- null}
r -t 0.450746666666667 -s 3 -d 0 -p ack -e 40 -c 1 -i 10 -a 1 -x {3.0 1.0 3 ------- null}
+ -t 0.450746666666667 -s 0 -d 1 -p ack -e 40 -c 1 -i 10 -a 1 -x {3.0 1.0 3 ------- null}
- -t 0.450746666666667 -s 0 -d 1 -p ack -e 40 -c 1 -i 10 -a 1 -x {3.0 1.0 3 ------- null}
h -t 0.450746666666667 -s 0 -d 1 -p ack -e 40 -c 1 -i 10 -a 1 -x {3.0 1.0 -1 ------- null}
r -t 0.456293333333333 -s 3 -d 0 -p ack -e 40 -c 1 -i 11 -a 1 -x {3.0 1.0 4 ------- null}
+ -t 0.456293333333333 -s 0 -d 1 -p ack -e 40 -c 1 -i 11 -a 1 -x {3.0 1.0 4 ------- null}
- -t 0.456293333333333 -s 0 -d 1 -p ack -e 40 -c 1 -i 11 -a 1 -x {3.0 1.0 4 ------- null}
h -t 0.456293333333333 -s 0 -d 1 -p ack -e 40 -c 1 -i 11 -a 1 -x {3.0 1.0 -1 ------- null}
r -t 0.46184 -s 3 -d 0 -p ack -e 40 -c 1 -i 12 -a 1 -x {3.0 1.0 5 ------- null}
+ -t 0.46184 -s 0 -d 1 -p ack -e 40 -c 1 -i 12 -a 1 -x {3.0 1.0 5 ------- null}
- -t 0.46184 -s 0 -d 1 -p ack -e 40 -c 1 -i 12 -a 1 -x {3.0 1.0 5 ------- null}
h -t 0.46184 -s 0 -d 1 -p ack -e 40 -c 1 -i 12 -a 1 -x {3.0 1.0 -1 ------- null}
r -t 0.467386666666667 -s 3 -d 0 -p ack -e 40 -c 1 -i 13 -a 1 -x {3.0 1.0 6 ------- null}
+ -t 0.467386666666667 -s 0 -d 1 -p ack -e 40 -c 1 -i 13 -a 1 -x {3.0 1.0 6 ------- null}
- -t 0.467386666666667 -s 0 -d 1 -p ack -e 40 -c 1 -i 13 -a 1 -x {3.0 1.0 6 ------- null}
h -t 0.467386666666667 -s 0 -d 1 -p ack -e 40 -c 1 -i 13 -a 1 -x {3.0 1.0 -1 ------- null}
r -t 0.480906666666667 -s 0 -d 1 -p ack -e 40 -c 1 -i 10 -a 1 -x {3.0 1.0 3 ------- null}
+ -t 0.480906666666667 -s 1 -d 0 -p tcp -e 1040 -c 1 -i 14 -a 1 -x {1.0 3.0 7 ------- null}
- -t 0.480906666666667 -s 1 -d 0 -p tcp -e 1040 -c 1 -i 14 -a 1 -x {1.0 3.0 7 ------- null}
h -t 0.480906666666667 -s 1 -d 0 -p tcp -e 1040 -c 1 -i 14 -a 1 -x {1.0 3.0 -1 ------- null}
+ -t 0.480906666666667 -s 1 -d 0 -p tcp -e 1040 -c 1 -i 15 -a 1 -x {1.0 3.0 8 ------- null}
- -t 0.485066666666667 -s 1 -d 0 -p tcp -e 1040 -c 1 -i 15 -a 1 -x {1.0 3.0 8 ------- null}
h -t 0.485066666666667 -s 1 -d 0 -p tcp -e 1040 -c 1 -i 15 -a 1 -x {1.0 3.0 -1 ------- null}
r -t 0.486453333333333 -s 0 -d 1 -p ack -e 40 -c 1 -i 11 -a 1 -x {3.0 1.0 4 ------- null}
+ -t 0.486453333333333 -s 1 -d 0 -p tcp -e 1040 -c 1 -i 16 -a 1 -x {1.0 3.0 9 ------- null}
+ -t 0.486453333333333 -s 1 -d 0 -p tcp -e 1040 -c 1 -i 17 -a 1 -x {1.0 3.0 10 ------- null}
- -t 0.489226666666667 -s 1 -d 0 -p tcp -e 1040 -c 1 -i 16 -a 1 -x {1.0 3.0 9 ------- null}
h -t 0.489226666666667 -s 1 -d 0 -p tcp -e 1040 -c 1 -i 16 -a 1 -x {1.0 3.0 -1 ------- null}
r -t 0.492 -s 0 -d 1 -p ack -e 40 -c 1 -i 12 -a 1 -x {3.0 1.0 5 ------- null}
+ -t 0.492 -s 1 -d 0 -p tcp -e 1040 -c 1 -i 18 -a 1 -x {1.0 3.0 11 ------- null}
+ -t 0.492 -s 1 -d 0 -p tcp -e 1040 -c 1 -i 19 -a 1 -x {1.0 3.0 12 ------- null}
- -t 0.493386666666667 -s 1 -d 0 -p tcp -e 1040 -c 1 -i 17 -a 1 -x {1.0 3.0 10 ------- null}
h -t 0.493386666666667 -s 1 -d 0 -p tcp -e 1040 -c 1 -i 17 -a 1 -x {1.0 3.0 -1 ------- null}
r -t 0.497546666666667 -s 0 -d 1 -p ack -e 40 -c 1 -i 13 -a 1 -x {3.0 1.0 6 ------- null}
+ -t 0.497546666666667 -s 1 -d 0 -p tcp -e 1040 -c 1 -i 20 -a 1 -x {1.0 3.0 13 ------- null}
+ -t 0.497546666666667 -s 1 -d 0 -p tcp -e 1040 -c 1 -i 21 -a 1 -x {1.0 3.0 14 ------- null}
- -t 0.497546666666667 -s 1 -d 0 -p tcp -e 1040 -c 1 -i 18 -a 1 -x {1.0 3.0 11 ------- null}
h -t 0.497546666666667 -s 1 -d 0 -p tcp -e 1040 -c 1 -i 18 -a 1 -x {1.0 3.0 -1 ------- null}
- -t 0.501706666666667 -s 1 -d 0 -p tcp -e 1040 -c 1 -i 19 -a 1 -x {1.0 3.0 12 ------- null}
h -t 0.501706666666667 -s 1 -d 0 -p tcp -e 1040 -c 1 -i 19 -a 1 -x {1.0 3.0 -1 ------- null}
- -t 0.505866666666667 -s 1 -d 0 -p tcp -e 1040 -c 1 -i 20 -a 1 -x {1.0 3.0 13 ------- null}
h -t 0.505866666666667 -s 1 -d 0 -p tcp -e 1040 -c 1 -i 20 -a 1 -x {1.0 3.0 -1 ------- null}
- -t 0.510026666666667 -s 1 -d 0 -p tcp -e 1040 -c 1 -i 21 -a 1 -x {1.0 3.0 14 ------- null}
h -t 0.510026666666667 -s 1 -d 0 -p tcp -e 1040 -c 1 -i 21 -a 1 -x {1.0 3.0 -1 ------- null}
r -t 0.515066666666667 -s 1 -d 0 -p tcp -e 1040 -c 1 -i 14 -a 1 -x {1.0 3.0 7 ------- null}
+ -t 0.515066666666667 -s 0 -d 3 -p tcp -e 1040 -c 1 -i 14 -a 1 -x {1.0 3.0 7 ------- null}
- -t 0.515066666666667 -s 0 -d 3 -p tcp -e 1040 -c 1 -i 14 -a 1 -x {1.0 3.0 7 ------- null}
h -t 0.515066666666667 -s 0 -d 3 -p tcp -e 1040 -c 1 -i 14 -a 1 -x {1.0 3.0 -1 ------- null}
r -t 0.519226666666667 -s 1 -d 0 -p tcp -e 1040 -c 1 -i 15 -a 1 -x {1.0 3.0 8 ------- null}
+ -t 0.519226666666667 -s 0 -d 3 -p tcp -e 1040 -c 1 -i 15 -a 1 -x {1.0 3.0 8 ------- null}
- -t 0.520613333333333 -s 0 -d 3 -p tcp -e 1040 -c 1 -i 15 -a 1 -x {1.0 3.0 8 ------- null}
h -t 0.520613333333333 -s 0 -d 3 -p tcp -e 1040 -c 1 -i 15 -a 1 -x {1.0 3.0 -1 ------- null}
r -t 0.523386666666667 -s 1 -d 0 -p tcp -e 1040 -c 1 -i 16 -a 1 -x {1.0 3.0 9 ------- null}
+ -t 0.523386666666667 -s 0 -d 3 -p tcp -e 1040 -c 1 -i 16 -a 1 -x {1.0 3.0 9 ------- null}
- -t 0.52616 -s 0 -d 3 -p tcp -e 1040 -c 1 -i 16 -a 1 -x {1.0 3.0 9 ------- null}
h -t 0.52616 -s 0 -d 3 -p tcp -e 1040 -c 1 -i 16 -a 1 -x {1.0 3.0 -1 ------- null}
r -t 0.527546666666667 -s 1 -d 0 -p tcp -e 1040 -c 1 -i 17 -a 1 -x {1.0 3.0 10 ------- null}
+ -t 0.527546666666667 -s 0 -d 3 -p tcp -e 1040 -c 1 -i 17 -a 1 -x {1.0 3.0 10 ------- null}
r -t 0.531706666666667 -s 1 -d 0 -p tcp -e 1040 -c 1 -i 18 -a 1 -x {1.0 3.0 11 ------- null}
+ -t 0.531706666666667 -s 0 -d 3 -p tcp -e 1040 -c 1 -i 18 -a 1 -x {1.0 3.0 11 ------- null}
- -t 0.531706666666667 -s 0 -d 3 -p tcp -e 1040 -c 1 -i 17 -a 1 -x {1.0 3.0 10 ------- null}
h -t 0.531706666666667 -s 0 -d 3 -p tcp -e 1040 -c 1 -i 17 -a 1 -x {1.0 3.0 -1 ------- null}
r -t 0.535866666666667 -s 1 -d 0 -p tcp -e 1040 -c 1 -i 19 -a 1 -x {1.0 3.0 12 ------- null}
+ -t 0.535866666666667 -s 0 -d 3 -p tcp -e 1040 -c 1 -i 19 -a 1 -x {1.0 3.0 12 ------- null}
- -t 0.537253333333333 -s 0 -d 3 -p tcp -e 1040 -c 1 -i 18 -a 1 -x {1.0 3.0 11 ------- null}
h -t 0.537253333333333 -s 0 -d 3 -p tcp -e 1040 -c 1 -i 18 -a 1 -x {1.0 3.0 -1 ------- null}
r -t 0.540026666666667 -s 1 -d 0 -p tcp -e 1040 -c 1 -i 20 -a 1 -x {1.0 3.0 13 ------- null}
+ -t 0.540026666666667 -s 0 -d 3 -p tcp -e 1040 -c 1 -i 20 -a 1 -x {1.0 3.0 13 ------- null}
- -t 0.5428 -s 0 -d 3 -p tcp -e 1040 -c 1 -i 19 -a 1 -x {1.0 3.0 12 ------- null}
h -t 0.5428 -s 0 -d 3 -p tcp -e 1040 -c 1 -i 19 -a 1 -x {1.0 3.0 -1 ------- null}
r -t 0.544186666666667 -s 1 -d 0 -p tcp -e 1040 -c 1 -i 21 -a 1 -x {1.0 3.0 14 ------- null}
+ -t 0.544186666666667 -s 0 -d 3 -p tcp -e 1040 -c 1 -i 21 -a 1 -x {1.0 3.0 14 ------- null}
- -t 0.548346666666667 -s 0 -d 3 -p tcp -e 1040 -c 1 -i 20 -a 1 -x {1.0 3.0 13 ------- null}
h -t 0.548346666666667 -s 0 -d 3 -p tcp -e 1040 -c 1 -i 20 -a 1 -x {1.0 3.0 -1 ------- null}
r -t 0.550613333333333 -s 0 -d 3 -p tcp -e 1040 -c 1 -i 14 -a 1 -x {1.0 3.0 7 ------- null}
+ -t 0.550613333333333 -s 3 -d 0 -p ack -e 40 -c 1 -i 22 -a 1 -x {3.0 1.0 7 ------- null}
- -t 0.550613333333333 -s 3 -d 0 -p ack -e 40 -c 1 -i 22 -a 1 -x {3.0 1.0 7 ------- null}
h -t 0.550613333333333 -s 3 -d 0 -p ack -e 40 -c 1 -i 22 -a 1 -x {3.0 1.0 -1 ------- null}
- -t 0.553893333333334 -s 0 -d 3 -p tcp -e 1040 -c 1 -i 21 -a 1 -x {1.0 3.0 14 ------- null}
h -t 0.553893333333334 -s 0 -d 3 -p tcp -e 1040 -c 1 -i 21 -a 1 -x {1.0 3.0 -1 ------- null}
r -t 0.55616 -s 0 -d 3 -p tcp -e 1040 -c 1 -i 15 -a 1 -x {1.0 3.0 8 ------- null}
+ -t 0.55616 -s 3 -d 0 -p ack -e 40 -c 1 -i 23 -a 1 -x {3.0 1.0 8 ------- null}
- -t 0.55616 -s 3 -d 0 -p ack -e 40 -c 1 -i 23 -a 1 -x {3.0 1.0 8 ------- null}
h -t 0.55616 -s 3 -d 0 -p ack -e 40 -c 1 -i 23 -a 1 -x {3.0 1.0 -1 ------- null}
r -t 0.561706666666667 -s 0 -d 3 -p tcp -e 1040 -c 1 -i 16 -a 1 -x {1.0 3.0 9 ------- null}
+ -t 0.561706666666667 -s 3 -d 0 -p ack -e 40 -c 1 -i 24 -a 1 -x {3.0 1.0 9 ------- null}
- -t 0.561706666666667 -s 3 -d 0 -p ack -e 40 -c 1 -i 24 -a 1 -x {3.0 1.0 9 ------- null}
h -t 0.561706666666667 -s 3 -d 0 -p ack -e 40 -c 1 -i 24 -a 1 -x {3.0 1.0 -1 ------- null}
r -t 0.567253333333333 -s 0 -d 3 -p tcp -e 1040 -c 1 -i 17 -a 1 -x {1.0 3.0 10 ------- null}
+ -t 0.567253333333333 -s 3 -d 0 -p ack -e 40 -c 1 -i 25 -a 1 -x {3.0 1.0 10 ------- null}
- -t 0.567253333333333 -s 3 -d 0 -p ack -e 40 -c 1 -i 25 -a 1 -x {3.0 1.0 10 ------- null}
h -t 0.567253333333333 -s 3 -d 0 -p ack -e 40 -c 1 -i 25 -a 1 -x {3.0 1.0 -1 ------- null}
r -t 0.5728 -s 0 -d 3 -p tcp -e 1040 -c 1 -i 18 -a 1 -x {1.0 3.0 11 ------- null}
+ -t 0.5728 -s 3 -d 0 -p ack -e 40 -c 1 -i 26 -a 1 -x {3.0 1.0 11 ------- null}
- -t 0.5728 -s 3 -d 0 -p ack -e 40 -c 1 -i 26 -a 1 -x {3.0 1.0 11 ------- null}
h -t 0.5728 -s 3 -d 0 -p ack -e 40 -c 1 -i 26 -a 1 -x {3.0 1.0 -1 ------- null}
r -t 0.578346666666667 -s 0 -d 3 -p tcp -e 1040 -c 1 -i 19 -a 1 -x {1.0 3.0 12 ------- null}
+ -t 0.578346666666667 -s 3 -d 0 -p ack -e 40 -c 1 -i 27 -a 1 -x {3.0 1.0 12 ------- null}
- -t 0.578346666666667 -s 3 -d 0 -p ack -e 40 -c 1 -i 27 -a 1 -x {3.0 1.0 12 ------- null}
h -t 0.578346666666667 -s 3 -d 0 -p ack -e 40 -c 1 -i 27 -a 1 -x {3.0 1.0 -1 ------- null}
r -t 0.580826666666667 -s 3 -d 0 -p ack -e 40 -c 1 -i 22 -a 1 -x {3.0 1.0 7 ------- null}
+ -t 0.580826666666667 -s 0 -d 1 -p ack -e 40 -c 1 -i 22 -a 1 -x {3.0 1.0 7 ------- null}
- -t 0.580826666666667 -s 0 -d 1 -p ack -e 40 -c 1 -i 22 -a 1 -x {3.0 1.0 7 ------- null}
h -t 0.580826666666667 -s 0 -d 1 -p ack -e 40 -c 1 -i 22 -a 1 -x {3.0 1.0 -1 ------- null}
r -t 0.583893333333333 -s 0 -d 3 -p tcp -e 1040 -c 1 -i 20 -a 1 -x {1.0 3.0 13 ------- null}
+ -t 0.583893333333333 -s 3 -d 0 -p ack -e 40 -c 1 -i 28 -a 1 -x {3.0 1.0 13 ------- null}
- -t 0.583893333333333 -s 3 -d 0 -p ack -e 40 -c 1 -i 28 -a 1 -x {3.0 1.0 13 ------- null}
h -t 0.583893333333333 -s 3 -d 0 -p ack -e 40 -c 1 -i 28 -a 1 -x {3.0 1.0 -1 ------- null}
r -t 0.586373333333333 -s 3 -d 0 -p ack -e 40 -c 1 -i 23 -a 1 -x {3.0 1.0 8 ------- null}
+ -t 0.586373333333333 -s 0 -d 1 -p ack -e 40 -c 1 -i 23 -a 1 -x {3.0 1.0 8 ------- null}
- -t 0.586373333333333 -s 0 -d 1 -p ack -e 40 -c 1 -i 23 -a 1 -x {3.0 1.0 8 ------- null}
h -t 0.586373333333333 -s 0 -d 1 -p ack -e 40 -c 1 -i 23 -a 1 -x {3.0 1.0 -1 ------- null}
r -t 0.58944 -s 0 -d 3 -p tcp -e 1040 -c 1 -i 21 -a 1 -x {1.0 3.0 14 ------- null}
+ -t 0.58944 -s 3 -d 0 -p ack -e 40 -c 1 -i 29 -a 1 -x {3.0 1.0 14 ------- null}
- -t 0.58944 -s 3 -d 0 -p ack -e 40 -c 1 -i 29 -a 1 -x {3.0 1.0 14 ------- null}
h -t 0.58944 -s 3 -d 0 -p ack -e 40 -c 1 -i 29 -a 1 -x {3.0 1.0 -1 ------- null}
r -t 0.59192 -s 3 -d 0 -p ack -e 40 -c 1 -i 24 -a 1 -x {3.0 1.0 9 ------- null}
+ -t 0.59192 -s 0 -d 1 -p ack -e 40 -c 1 -i 24 -a 1 -x {3.0 1.0 9 ------- null}
- -t 0.59192 -s 0 -d 1 -p ack -e 40 -c 1 -i 24 -a 1 -x {3.0 1.0 9 ------- null}
h -t 0.59192 -s 0 -d 1 -p ack -e 40 -c 1 -i 24 -a 1 -x {3.0 1.0 -1 ------- null}
r -t 0.597466666666667 -s 3 -d 0 -p ack -e 40 -c 1 -i 25 -a 1 -x {3.0 1.0 10 ------- null}
+ -t 0.597466666666667 -s 0 -d 1 -p ack -e 40 -c 1 -i 25 -a 1 -x {3.0 1.0 10 ------- null}
- -t 0.597466666666667 -s 0 -d 1 -p ack -e 40 -c 1 -i 25 -a 1 -x {3.0 1.0 10 ------- null}
h -t 0.597466666666667 -s 0 -d 1 -p ack -e 40 -c 1 -i 25 -a 1 -x {3.0 1.0 -1 ------- null}
r -t 0.603013333333333 -s 3 -d 0 -p ack -e 40 -c 1 -i 26 -a 1 -x {3.0 1.0 11 ------- null}
+ -t 0.603013333333333 -s 0 -d 1 -p ack -e 40 -c 1 -i 26 -a 1 -x {3.0 1.0 11 ------- null}
- -t 0.603013333333333 -s 0 -d 1 -p ack -e 40 -c 1 -i 26 -a 1 -x {3.0 1.0 11 ------- null}
h -t 0.603013333333333 -s 0 -d 1 -p ack -e 40 -c 1 -i 26 -a 1 -x {3.0 1.0 -1 ------- null}
r -t 0.60856 -s 3 -d 0 -p ack -e 40 -c 1 -i 27 -a 1 -x {3.0 1.0 12 ------- null}
+ -t 0.60856 -s 0 -d 1 -p ack -e 40 -c 1 -i 27 -a 1 -x {3.0 1.0 12 ------- null}
- -t 0.60856 -s 0 -d 1 -p ack -e 40 -c 1 -i 27 -a 1 -x {3.0 1.0 12 ------- null}
h -t 0.60856 -s 0 -d 1 -p ack -e 40 -c 1 -i 27 -a 1 -x {3.0 1.0 -1 ------- null}
r -t 0.610986666666667 -s 0 -d 1 -p ack -e 40 -c 1 -i 22 -a 1 -x {3.0 1.0 7 ------- null}
+ -t 0.610986666666667 -s 1 -d 0 -p tcp -e 1040 -c 1 -i 30 -a 1 -x {1.0 3.0 15 ------- null}
- -t 0.610986666666667 -s 1 -d 0 -p tcp -e 1040 -c 1 -i 30 -a 1 -x {1.0 3.0 15 ------- null}
h -t 0.610986666666667 -s 1 -d 0 -p tcp -e 1040 -c 1 -i 30 -a 1 -x {1.0 3.0 -1 ------- null}
+ -t 0.610986666666667 -s 1 -d 0 -p tcp -e 1040 -c 1 -i 31 -a 1 -x {1.0 3.0 16 ------- null}
r -t 0.614106666666667 -s 3 -d 0 -p ack -e 40 -c 1 -i 28 -a 1 -x {3.0 1.0 13 ------- null}
+ -t 0.614106666666667 -s 0 -d 1 -p ack -e 40 -c 1 -i 28 -a 1 -x {3.0 1.0 13 ------- null}
- -t 0.614106666666667 -s 0 -d 1 -p ack -e 40 -c 1 -i 28 -a 1 -x {3.0 1.0 13 ------- null}
h -t 0.614106666666667 -s 0 -d 1 -p ack -e 40 -c 1 -i 28 -a 1 -x {3.0 1.0 -1 ------- null}
- -t 0.615146666666667 -s 1 -d 0 -p tcp -e 1040 -c 1 -i 31 -a 1 -x {1.0 3.0 16 ------- null}
h -t 0.615146666666667 -s 1 -d 0 -p tcp -e 1040 -c 1 -i 31 -a 1 -x {1.0 3.0 -1 ------- null}
r -t 0.616533333333333 -s 0 -d 1 -p ack -e 40 -c 1 -i 23 -a 1 -x {3.0 1.0 8 ------- null}
+ -t 0.616533333333333 -s 1 -d 0 -p tcp -e 1040 -c 1 -i 32 -a 1 -x {1.0 3.0 17 ------- null}
+ -t 0.616533333333333 -s 1 -d 0 -p tcp -e 1040 -c 1 -i 33 -a 1 -x {1.0 3.0 18 ------- null}
- -t 0.619306666666667 -s 1 -d 0 -p tcp -e 1040 -c 1 -i 32 -a 1 -x {1.0 3.0 17 ------- null}
h -t 0.619306666666667 -s 1 -d 0 -p tcp -e 1040 -c 1 -i 32 -a 1 -x {1.0 3.0 -1 ------- null}
r -t 0.619653333333334 -s 3 -d 0 -p ack -e 40 -c 1 -i 29 -a 1 -x {3.0 1.0 14 ------- null}
+ -t 0.619653333333334 -s 0 -d 1 -p ack -e 40 -c 1 -i 29 -a 1 -x {3.0 1.0 14 ------- null}
- -t 0.619653333333334 -s 0 -d 1 -p ack -e 40 -c 1 -i 29 -a 1 -x {3.0 1.0 14 ------- null}
h -t 0.619653333333334 -s 0 -d 1 -p ack -e 40 -c 1 -i 29 -a 1 -x {3.0 1.0 -1 ------- null}
r -t 0.62208 -s 0 -d 1 -p ack -e 40 -c 1 -i 24 -a 1 -x {3.0 1.0 9 ------- null}
+ -t 0.62208 -s 1 -d 0 -p tcp -e 1040 -c 1 -i 34 -a 1 -x {1.0 3.0 19 ------- null}
+ -t 0.62208 -s 1 -d 0 -p tcp -e 1040 -c 1 -i 35 -a 1 -x {1.0 3.0 20 ------- null}
- -t 0.623466666666667 -s 1 -d 0 -p tcp -e 1040 -c 1 -i 33 -a 1 -x {1.0 3.0 18 ------- null}
h -t 0.623466666666667 -s 1 -d 0 -p tcp -e 1040 -c 1 -i 33 -a 1 -x {1.0 3.0 -1 ------- null}
r -t 0.627626666666667 -s 0 -d 1 -p ack -e 40 -c 1 -i 25 -a 1 -x {3.0 1.0 10 ------- null}
+ -t 0.627626666666667 -s 1 -d 0 -p tcp -e 1040 -c 1 -i 36 -a 1 -x {1.0 3.0 21 ------- null}
+ -t 0.627626666666667 -s 1 -d 0 -p tcp -e 1040 -c 1 -i 37 -a 1 -x {1.0 3.0 22 ------- null}
- -t 0.627626666666667 -s 1 -d 0 -p tcp -e 1040 -c 1 -i 34 -a 1 -x {1.0 3.0 19 ------- null}
h -t 0.627626666666667 -s 1 -d 0 -p tcp -e 1040 -c 1 -i 34 -a 1 -x {1.0 3.0 -1 ------- null}
- -t 0.631786666666667 -s 1 -d 0 -p tcp -e 1040 -c 1 -i 35 -a 1 -x {1.0 3.0 20 ------- null}
h -t 0.631786666666667 -s 1 -d 0 -p tcp -e 1040 -c 1 -i 35 -a 1 -x {1.0 3.0 -1 ------- null}
r -t 0.633173333333333 -s 0 -d 1 -p ack -e 40 -c 1 -i 26 -a 1 -x {3.0 1.0 11 ------- null}
+ -t 0.633173333333333 -s 1 -d 0 -p tcp -e 1040 -c 1 -i 38 -a 1 -x {1.0 3.0 23 ------- null}
+ -t 0.633173333333333 -s 1 -d 0 -p tcp -e 1040 -c 1 -i 39 -a 1 -x {1.0 3.0 24 ------- null}
- -t 0.635946666666667 -s 1 -d 0 -p tcp -e 1040 -c 1 -i 36 -a 1 -x {1.0 3.0 21 ------- null}
h -t 0.635946666666667 -s 1 -d 0 -p tcp -e 1040 -c 1 -i 36 -a 1 -x {1.0 3.0 -1 ------- null}
r -t 0.63872 -s 0 -d 1 -p ack -e 40 -c 1 -i 27 -a 1 -x {3.0 1.0 12 ------- null}
+ -t 0.63872 -s 1 -d 0 -p tcp -e 1040 -c 1 -i 40 -a 1 -x {1.0 3.0 25 ------- null}
+ -t 0.63872 -s 1 -d 0 -p tcp -e 1040 -c 1 -i 41 -a 1 -x {1.0 3.0 26 ------- null}
- -t 0.640106666666667 -s 1 -d 0 -p tcp -e 1040 -c 1 -i 37 -a 1 -x {1.0 3.0 22 ------- null}
h -t 0.640106666666667 -s 1 -d 0 -p tcp -e 1040 -c 1 -i 37 -a 1 -x {1.0 3.0 -1 ------- null}
r -t 0.644266666666667 -s 0 -d 1 -p ack -e 40 -c 1 -i 28 -a 1 -x {3.0 1.0 13 ------- null}
+ -t 0.644266666666667 -s 1 -d 0 -p tcp -e 1040 -c 1 -i 42 -a 1 -x {1.0 3.0 27 ------- null}
+ -t 0.644266666666667 -s 1 -d 0 -p tcp -e 1040 -c 1 -i 43 -a 1 -x {1.0 3.0 28 ------- null}
- -t 0.644266666666667 -s 1 -d 0 -p tcp -e 1040 -c 1 -i 38 -a 1 -x {1.0 3.0 23 ------- null}
h -t 0.644266666666667 -s 1 -d 0 -p tcp -e 1040 -c 1 -i 38 -a 1 -x {1.0 3.0 -1 ------- null}
r -t 0.645146666666667 -s 1 -d 0 -p tcp -e 1040 -c 1 -i 30 -a 1 -x {1.0 3.0 15 ------- null}
+ -t 0.645146666666667 -s 0 -d 3 -p tcp -e 1040 -c 1 -i 30 -a 1 -x {1.0 3.0 15 ------- null}
- -t 0.645146666666667 -s 0 -d 3 -p tcp -e 1040 -c 1 -i 30 -a 1 -x {1.0 3.0 15 ------- null}
h -t 0.645146666666667 -s 0 -d 3 -p tcp -e 1040 -c 1 -i 30 -a 1 -x {1.0 3.0 -1 ------- null}
- -t 0.648426666666667 -s 1 -d 0 -p tcp -e 1040 -c 1 -i 39 -a 1 -x {1.0 3.0 24 ------- null}
h -t 0.648426666666667 -s 1 -d 0 -p tcp -e 1040 -c 1 -i 39 -a 1 -x {1.0 3.0 -1 ------- null}
r -t 0.649306666666667 -s 1 -d 0 -p tcp -e 1040 -c 1 -i 31 -a 1 -x {1.0 3.0 16 ------- null}
+ -t 0.649306666666667 -s 0 -d 3 -p tcp -e 1040 -c 1 -i 31 -a 1 -x {1.0 3.0 16 ------- null}
r -t 0.649813333333333 -s 0 -d 1 -p ack -e 40 -c 1 -i 29 -a 1 -x {3.0 1.0 14 ------- null}
+ -t 0.649813333333333 -s 1 -d 0 -p tcp -e 1040 -c 1 -i 44 -a 1 -x {1.0 3.0 29 ------- null}
+ -t 0.649813333333333 -s 1 -d 0 -p tcp -e 1040 -c 1 -i 45 -a 1 -x {1.0 3.0 30 ------- null}
- -t 0.650693333333333 -s 0 -d 3 -p tcp -e 1040 -c 1 -i 31 -a 1 -x {1.0 3.0 16 ------- null}
h -t 0.650693333333333 -s 0 -d 3 -p tcp -e 1040 -c 1 -i 31 -a 1 -x {1.0 3.0 -1 ------- null}
- -t 0.652586666666667 -s 1 -d 0 -p tcp -e 1040 -c 1 -i 40 -a 1 -x {1.0 3.0 25 ------- null}
h -t 0.652586666666667 -s 1 -d 0 -p tcp -e 1040 -c 1 -i 40 -a 1 -x {1.0 3.0 -1 ------- null}
r -t 0.653466666666667 -s 1 -d 0 -p tcp -e 1040 -c 1 -i 32 -a 1 -x {1.0 3.0 17 ------- null}
+ -t 0.653466666666667 -s 0 -d 3 -p tcp -e 1040 -c 1 -i 32 -a 1 -x {1.0 3.0 17 ------- null}
- -t 0.65624 -s 0 -d 3 -p tcp -e 1040 -c 1 -i 32 -a 1 -x {1.0 3.0 17 ------- null}
h -t 0.65624 -s 0 -d 3 -p tcp -e 1040 -c 1 -i 32 -a 1 -x {1.0 3.0 -1 ------- null}
- -t 0.656746666666667 -s 1 -d 0 -p tcp -e 1040 -c 1 -i 41 -a 1 -x {1.0 3.0 26 ------- null}
h -t 0.656746666666667 -s 1 -d 0 -p tcp -e 1040 -c 1 -i 41 -a 1 -x {1.0 3.0 -1 ------- null}
r -t 0.657626666666667 -s 1 -d 0 -p tcp -e 1040 -c 1 -i 33 -a 1 -x {1.0 3.0 18 ------- null}
+ -t 0.657626666666667 -s 0 -d 3 -p tcp -e 1040 -c 1 -i 33 -a 1 -x {1.0 3.0 18 ------- null}
- -t 0.660906666666667 -s 1 -d 0 -p tcp -e 1040 -c 1 -i 42 -a 1 -x {1.0 3.0 27 ------- null}
h -t 0.660906666666667 -s 1 -d 0 -p tcp -e 1040 -c 1 -i 42 -a 1 -x {1.0 3.0 -1 ------- null}
- -t 0.661786666666667 -s 0 -d 3 -p tcp -e 1040 -c 1 -i 33 -a 1 -x {1.0 3.0 18 ------- null}
h -t 0.661786666666667 -s 0 -d 3 -p tcp -e 1040 -c 1 -i 33 -a 1 -x {1.0 3.0 -1 ------- null}
r -t 0.661786666666667 -s 1 -d 0 -p tcp -e 1040 -c 1 -i 34 -a 1 -x {1.0 3.0 19 ------- null}
+ -t 0.661786666666667 -s 0 -d 3 -p tcp -e 1040 -c 1 -i 34 -a 1 -x {1.0 3.0 19 ------- null}
- -t 0.665066666666667 -s 1 -d 0 -p tcp -e 1040 -c 1 -i 43 -a 1 -x {1.0 3.0 28 ------- null}
h -t 0.665066666666667 -s 1 -d 0 -p tcp -e 1040 -c 1 -i 43 -a 1 -x {1.0 3.0 -1 ------- null}
r -t 0.665946666666667 -s 1 -d 0 -p tcp -e 1040 -c 1 -i 35 -a 1 -x {1.0 3.0 20 ------- null}
+ -t 0.665946666666667 -s 0 -d 3 -p tcp -e 1040 -c 1 -i 35 -a 1 -x {1.0 3.0 20 ------- null}
- -t 0.667333333333333 -s 0 -d 3 -p tcp -e 1040 -c 1 -i 34 -a 1 -x {1.0 3.0 19 ------- null}
h -t 0.667333333333333 -s 0 -d 3 -p tcp -e 1040 -c 1 -i 34 -a 1 -x {1.0 3.0 -1 ------- null}
- -t 0.669226666666667 -s 1 -d 0 -p tcp -e 1040 -c 1 -i 44 -a 1 -x {1.0 3.0 29 ------- null}
h -t 0.669226666666667 -s 1 -d 0 -p tcp -e 1040 -c 1 -i 44 -a 1 -x {1.0 3.0 -1 ------- null}
r -t 0.670106666666667 -s 1 -d 0 -p tcp -e 1040 -c 1 -i 36 -a 1 -x {1.0 3.0 21 ------- null}
+ -t 0.670106666666667 -s 0 -d 3 -p tcp -e 1040 -c 1 -i 36 -a 1 -x {1.0 3.0 21 ------- null}
- -t 0.67288 -s 0 -d 3 -p tcp -e 1040 -c 1 -i 35 -a 1 -x {1.0 3.0 20 ------- null}
h -t 0.67288 -s 0 -d 3 -p tcp -e 1040 -c 1 -i 35 -a 1 -x {1.0 3.0 -1 ------- null}
- -t 0.673386666666667 -s 1 -d 0 -p tcp -e 1040 -c 1 -i 45 -a 1 -x {1.0 3.0 30 ------- null}
h -t 0.673386666666667 -s 1 -d 0 -p tcp -e 1040 -c 1 -i 45 -a 1 -x {1.0 3.0 -1 ------- null}
r -t 0.674266666666667 -s 1 -d 0 -p tcp -e 1040 -c 1 -i 37 -a 1 -x {1.0 3.0 22 ------- null}
+ -t 0.674266666666667 -s 0 -d 3 -p tcp -e 1040 -c 1 -i 37 -a 1 -x {1.0 3.0 22 ------- null}
- -t 0.678426666666667 -s 0 -d 3 -p tcp -e 1040 -c 1 -i 36 -a 1 -x {1.0 3.0 21 ------- null}
h -t 0.678426666666667 -s 0 -d 3 -p tcp -e 1040 -c 1 -i 36 -a 1 -x {1.0 3.0 -1 ------- null}
r -t 0.678426666666667 -s 1 -d 0 -p tcp -e 1040 -c 1 -i 38 -a 1 -x {1.0 3.0 23 ------- null}
+ -t 0.678426666666667 -s 0 -d 3 -p tcp -e 1040 -c 1 -i 38 -a 1 -x {1.0 3.0 23 ------- null}
r -t 0.680693333333333 -s 0 -d 3 -p tcp -e 1040 -c 1 -i 30 -a 1 -x {1.0 3.0 15 ------- null}
+ -t 0.680693333333333 -s 3 -d 0 -p ack -e 40 -c 1 -i 46 -a 1 -x {3.0 1.0 15 ------- null}
- -t 0.680693333333333 -s 3 -d 0 -p ack -e 40 -c 1 -i 46 -a 1 -x {3.0 1.0 15 ------- null}
h -t 0.680693333333333 -s 3 -d 0 -p ack -e 40 -c 1 -i 46 -a 1 -x {3.0 1.0 -1 ------- null}
r -t 0.682586666666667 -s 1 -d 0 -p tcp -e 1040 -c 1 -i 39 -a 1 -x {1.0 3.0 24 ------- null}